REMARK SMILES CC(=O)Oc1ccccc1C(=O)O
REMARK SMILES IDX 5 1 6 2 7 3 8 4 9 5 10 6 4 7 2 8 3 9 1 10 11 11 12 12 13 13
REMARK H PARENT 13 14
ROOT
ATOM      1  C   UNL     1      -0.164   0.480   0.363  1.00  0.00     0.145 A 
ATOM      2  C   UNL     1      -0.687   1.779   0.404  1.00  0.00     0.048 A 
ATOM      3  C   UNL     1       0.126   2.865   0.086  1.00  0.00     0.004 A 
ATOM      4  C   UNL     1       1.458   2.658  -0.263  1.00  0.00     0.001 A 
ATOM      5  C   UNL     1       1.983   1.362  -0.285  1.00  0.00     0.019 A 
ATOM      6  C   UNL     1       1.181   0.255   0.038  1.00  0.00     0.102 A 
ENDROOT
BRANCH   1   7
ATOM      7  O   UNL     1      -1.041  -0.548   0.716  1.00  0.00    -0.426 OA
BRANCH   7   8
ATOM      8  C   UNL     1      -1.595  -1.181  -0.390  1.00  0.00     0.308 C 
ATOM      9  O   UNL     1      -1.419  -0.891  -1.566  1.00  0.00    -0.252 OA
ATOM     10  C   UNL     1      -2.479  -2.296   0.083  1.00  0.00     0.139 C 
ENDBRANCH   7   8
ENDBRANCH   1   7
BRANCH   6  11
ATOM     11  C   UNL     1       1.842  -1.074   0.012  1.00  0.00     0.339 C 
ATOM     12  O   UNL     1       2.981  -1.283  -0.369  1.00  0.00    -0.246 OA
BRANCH  11  13
ATOM     13  O   UNL     1       1.097  -2.086   0.489  1.00  0.00    -0.478 OA
ATOM     14  H   UNL     1       1.693  -2.860   0.408  1.00  0.00     0.297 HD
ENDBRANCH  11  13
ENDBRANCH   6  11
TORSDOF 4
