MODEL 1
REMARK VINA RESULT:    -5.479      0.000      0.000
REMARK INTER + INTRA:          -6.962
REMARK INTER:                  -6.600
REMARK INTRA:                  -0.361
REMARK UNBOUND:                -0.361
REMARK SMILES CC(=O)Oc1ccccc1C(=O)O
REMARK SMILES IDX 5 1 6 2 7 3 8 4 9 5 10 6 4 7 2 8 3 9 1 10 11 11 12 12 13 13
REMARK H PARENT 13 14
ROOT
ATOM      1  C   UNL     1       4.699   5.591  -0.977  1.00  0.00     0.145 A 
ATOM      2  C   UNL     1       3.516   5.327  -0.275  1.00  0.00     0.048 A 
ATOM      3  C   UNL     1       2.574   6.338  -0.097  1.00  0.00     0.004 A 
ATOM      4  C   UNL     1       2.815   7.611  -0.609  1.00  0.00     0.001 A 
ATOM      5  C   UNL     1       4.005   7.877  -1.293  1.00  0.00     0.019 A 
ATOM      6  C   UNL     1       4.969   6.872  -1.478  1.00  0.00     0.102 A 
ENDROOT
BRANCH   1   7
ATOM      7  O   UNL     1       5.597   4.527  -1.092  1.00  0.00    -0.426 OA
BRANCH   7   8
ATOM      8  C   UNL     1       6.210   4.213   0.115  1.00  0.00     0.308 C 
ATOM      9  O   UNL     1       6.926   4.943   0.787  1.00  0.00    -0.252 OA
ATOM     10  C   UNL     1       5.866   2.799   0.479  1.00  0.00     0.139 C 
ENDBRANCH   7   8
ENDBRANCH   1   7
BRANCH   6  11
ATOM     11  C   UNL     1       6.210   7.265  -2.192  1.00  0.00     0.339 C 
ATOM     12  O   UNL     1       7.335   7.201  -1.729  1.00  0.00    -0.246 OA
BRANCH  11  13
ATOM     13  O   UNL     1       6.026   7.684  -3.456  1.00  0.00    -0.478 OA
ATOM     14  H   UNL     1       5.740   6.871  -3.922  1.00  0.00     0.297 HD
ENDBRANCH  11  13
ENDBRANCH   6  11
TORSDOF 4
ENDMDL
