MODEL 1
REMARK VINA RESULT:    -6.590      0.000      0.000
REMARK INTER + INTRA:         -10.439
REMARK INTER:                  -9.672
REMARK INTRA:                  -0.767
REMARK UNBOUND:                -0.767
REMARK SMILES COc1cc2ncnc(Nc3ccc(F)c(Cl)c3)c2cc1OCCCN1CCOCC1
REMARK SMILES IDX 22 1 21 2 3 3 4 4 5 5 20 6 6 7 19 8 7 9 9 10 8 11 2 12 1 13
REMARK SMILES IDX 10 14 11 16 12 17 18 18 13 19 16 20 14 21 17 22 15 23 23 24
REMARK SMILES IDX 24 25 25 26 26 27 27 28 31 29 28 30 30 31 29 32
REMARK H PARENT 10 15
ROOT
ATOM      1  O   UNL     1       0.019  20.355 -26.604  1.00  0.00    -0.490 OA
ENDROOT
BRANCH   1   2
ATOM      2  C   UNL     1      -0.445  20.074 -27.863  1.00  0.00     0.162 A 
ATOM      3  C   UNL     1      -1.031  21.123 -28.583  1.00  0.00     0.162 A 
ATOM      4  C   UNL     1      -1.527  20.872 -29.866  1.00  0.00     0.079 A 
ATOM      5  C   UNL     1      -1.476  19.608 -30.441  1.00  0.00     0.080 A 
ATOM      6  C   UNL     1      -0.406  18.793 -28.414  1.00  0.00     0.064 A 
ATOM      7  N   UNL     1      -1.961  19.456 -31.676  1.00  0.00    -0.236 NA
ATOM      8  C   UNL     1      -0.925  18.547 -29.710  1.00  0.00     0.047 A 
ATOM      9  C   UNL     1      -1.895  18.229 -32.204  1.00  0.00     0.224 A 
ATOM     10  C   UNL     1      -0.931  17.294 -30.357  1.00  0.00     0.141 A 
ATOM     11  N   UNL     1      -1.404  17.141 -31.606  1.00  0.00    -0.219 NA
BRANCH   3  12
ATOM     12  O   UNL     1      -1.044  22.347 -27.963  1.00  0.00    -0.493 OA
ATOM     13  C   UNL     1      -0.384  23.422 -28.619  1.00  0.00     0.278 C 
ENDBRANCH   3  12
BRANCH  10  14
ATOM     14  N   UNL     1      -0.436  16.157 -29.659  1.00  0.00    -0.340 N 
ATOM     15  H   UNL     1      -0.947  16.070 -28.786  1.00  0.00     0.168 HD
BRANCH  14  16
ATOM     16  C   UNL     1      -0.095  14.892 -30.191  1.00  0.00     0.041 A 
ATOM     17  C   UNL     1       0.776  14.828 -31.292  1.00  0.00     0.029 A 
ATOM     18  C   UNL     1      -0.687  13.702 -29.742  1.00  0.00     0.049 A 
ATOM     19  C   UNL     1       1.095  13.605 -31.887  1.00  0.00     0.043 A 
ATOM     20  C   UNL     1      -0.370  12.478 -30.336  1.00  0.00     0.078 A 
ATOM     21  C   UNL     1       0.524  12.434 -31.401  1.00  0.00     0.141 A 
ATOM     22  Cl  UNL     1      -1.103  11.034 -29.748  1.00  0.00    -0.081 Cl
ATOM     23  F   UNL     1       0.841  11.271 -31.987  1.00  0.00    -0.205 F 
ENDBRANCH  14  16
ENDBRANCH  10  14
ENDBRANCH   1   2
BRANCH   1  24
ATOM     24  C   UNL     1       1.391  20.028 -26.373  1.00  0.00     0.231 C 
BRANCH  24  25
ATOM     25  C   UNL     1       1.891  20.839 -25.179  1.00  0.00     0.057 C 
BRANCH  25  26
ATOM     26  C   UNL     1       1.056  20.558 -23.921  1.00  0.00     0.088 C 
BRANCH  26  27
ATOM     27  N   UNL     1       1.014  21.721 -23.021  1.00  0.00    -0.299 NA
ATOM     28  C   UNL     1       1.110  22.977 -23.801  1.00  0.00     0.113 C 
ATOM     29  C   UNL     1      -0.187  21.744 -22.154  1.00  0.00     0.113 C 
ATOM     30  C   UNL     1       0.569  24.179 -23.014  1.00  0.00     0.175 C 
ATOM     31  C   UNL     1      -1.282  22.711 -22.638  1.00  0.00     0.175 C 
ATOM     32  O   UNL     1      -0.835  24.070 -22.738  1.00  0.00    -0.379 OA
ENDBRANCH  26  27
ENDBRANCH  25  26
ENDBRANCH  24  25
ENDBRANCH   1  24
TORSDOF 8
ENDMDL
