REMARK SMILES COc1cc2ncnc(Nc3ccc(F)c(Cl)c3)c2cc1OCCCN1CCOCC1
REMARK SMILES IDX 22 1 21 2 3 3 4 4 5 5 20 6 6 7 19 8 7 9 9 10 8 11 2 12 1 13
REMARK SMILES IDX 10 14 11 16 12 17 18 18 13 19 16 20 14 21 17 22 15 23 23 24
REMARK SMILES IDX 24 25 25 26 26 27 27 28 31 29 28 30 30 31 29 32
REMARK H PARENT 10 15
ROOT
ATOM      1  O   UNL     1      -0.944  -0.532   0.979  1.00  0.00    -0.490 OA
ENDROOT
BRANCH   1   2
ATOM      2  C   UNL     1       0.124  -1.104   0.337  1.00  0.00     0.162 A 
ATOM      3  C   UNL     1      -0.114  -2.276  -0.392  1.00  0.00     0.162 A 
ATOM      4  C   UNL     1       0.954  -2.895  -1.049  1.00  0.00     0.079 A 
ATOM      5  C   UNL     1       2.249  -2.395  -0.984  1.00  0.00     0.080 A 
ATOM      6  C   UNL     1       1.422  -0.600   0.434  1.00  0.00     0.064 A 
ATOM      7  N   UNL     1       3.209  -3.040  -1.652  1.00  0.00    -0.236 NA
ATOM      8  C   UNL     1       2.499  -1.244  -0.225  1.00  0.00     0.047 A 
ATOM      9  C   UNL     1       4.444  -2.533  -1.573  1.00  0.00     0.224 A 
ATOM     10  C   UNL     1       3.842  -0.815  -0.194  1.00  0.00     0.141 A 
ATOM     11  N   UNL     1       4.808  -1.453  -0.877  1.00  0.00    -0.219 NA
BRANCH   3  12
ATOM     12  O   UNL     1      -1.413  -2.714  -0.423  1.00  0.00    -0.493 OA
ATOM     13  C   UNL     1      -1.674  -3.950  -1.076  1.00  0.00     0.278 C 
ENDBRANCH   3  12
BRANCH  10  14
ATOM     14  N   UNL     1       4.184   0.317   0.598  1.00  0.00    -0.340 N 
ATOM     15  H   UNL     1       3.866   0.151   1.548  1.00  0.00     0.168 HD
BRANCH  14  16
ATOM     16  C   UNL     1       5.386   1.061   0.574  1.00  0.00     0.041 A 
ATOM     17  C   UNL     1       5.784   1.751   1.732  1.00  0.00     0.029 A 
ATOM     18  C   UNL     1       6.138   1.238  -0.597  1.00  0.00     0.049 A 
ATOM     19  C   UNL     1       6.934   2.545   1.737  1.00  0.00     0.043 A 
ATOM     20  C   UNL     1       7.288   2.032  -0.594  1.00  0.00     0.078 A 
ATOM     21  C   UNL     1       7.684   2.676   0.574  1.00  0.00     0.141 A 
ATOM     22  Cl  UNL     1       8.197   2.215  -2.046  1.00  0.00    -0.081 Cl
ATOM     23  F   UNL     1       8.782   3.444   0.599  1.00  0.00    -0.205 F 
ENDBRANCH  14  16
ENDBRANCH  10  14
ENDBRANCH   1   2
BRANCH   1  24
ATOM     24  C   UNL     1      -0.970   0.897   0.963  1.00  0.00     0.231 C 
BRANCH  24  25
ATOM     25  C   UNL     1      -2.410   1.360   1.179  1.00  0.00     0.057 C 
BRANCH  25  26
ATOM     26  C   UNL     1      -3.326   0.895   0.037  1.00  0.00     0.088 C 
BRANCH  26  27
ATOM     27  N   UNL     1      -4.683   1.449   0.165  1.00  0.00    -0.299 NA
ATOM     28  C   UNL     1      -5.392   1.376  -1.133  1.00  0.00     0.113 C 
ATOM     29  C   UNL     1      -5.482   0.792   1.225  1.00  0.00     0.113 C 
ATOM     30  C   UNL     1      -6.915   1.447  -0.956  1.00  0.00     0.175 C 
ATOM     31  C   UNL     1      -6.494  -0.237   0.691  1.00  0.00     0.175 C 
ATOM     32  O   UNL     1      -7.438   0.323  -0.232  1.00  0.00    -0.379 OA
ENDBRANCH  26  27
ENDBRANCH  25  26
ENDBRANCH  24  25
ENDBRANCH   1  24
TORSDOF 8
