REMARK SMILES OC[C@H]1OC(O)[C@H](O)[C@@H](O)[C@@H]1O
REMARK SMILES IDX 3 1 4 2 5 3 7 4 9 5 11 6 2 7 1 8 12 10 6 12 10 14 8 16
REMARK H PARENT 1 9 12 11 6 13 10 15 8 17
ROOT
ATOM      1  C   UNL     1       1.033  -0.281  -0.202  1.00  0.00     0.178 C 
ATOM      2  O   UNL     1       0.400  -1.399   0.434  1.00  0.00    -0.342 OA
ATOM      3  C   UNL     1      -0.962  -1.556   0.075  1.00  0.00     0.279 C 
ATOM      4  C   UNL     1      -1.790  -0.314   0.423  1.00  0.00     0.201 C 
ATOM      5  C   UNL     1      -1.189   0.941  -0.214  1.00  0.00     0.179 C 
ATOM      6  C   UNL     1       0.312   1.055   0.082  1.00  0.00     0.177 C 
ENDROOT
BRANCH   1   7
ATOM      7  C   UNL     1       2.489  -0.241   0.292  1.00  0.00     0.191 C 
BRANCH   7   8
ATOM      8  O   UNL     1       3.205   0.851  -0.277  1.00  0.00    -0.394 OA
ATOM      9  H   UNL     1       4.131   0.762   0.017  1.00  0.00     0.210 HD
ENDBRANCH   7   8
ENDBRANCH   1   7
BRANCH   6  10
ATOM     10  O   UNL     1       0.868   2.104  -0.724  1.00  0.00    -0.387 OA
ATOM     11  H   UNL     1       1.843   2.028  -0.651  1.00  0.00     0.211 HD
ENDBRANCH   6  10
BRANCH   3  12
ATOM     12  O   UNL     1      -1.081  -1.840  -1.314  1.00  0.00    -0.366 OA
ATOM     13  H   UNL     1      -0.768  -2.756  -1.414  1.00  0.00     0.213 HD
ENDBRANCH   3  12
BRANCH   5  14
ATOM     14  O   UNL     1      -1.890   2.085   0.307  1.00  0.00    -0.387 OA
ATOM     15  H   UNL     1      -2.839   1.893   0.184  1.00  0.00     0.211 HD
ENDBRANCH   5  14
BRANCH   4  16
ATOM     16  O   UNL     1      -3.148  -0.459  -0.030  1.00  0.00    -0.385 OA
ATOM     17  H   UNL     1      -3.083  -0.800  -0.945  1.00  0.00     0.211 HD
ENDBRANCH   4  16
TORSDOF 6
