MODEL 1
REMARK VINA RESULT:    -3.803      0.000      0.000
REMARK INTER + INTRA:          -4.824
REMARK INTER:                  -4.581
REMARK INTRA:                  -0.244
REMARK UNBOUND:                -0.244
REMARK SMILES OC[C@H]1OC(O)[C@H](O)[C@@H](O)[C@@H]1O
REMARK SMILES IDX 3 1 4 2 5 3 7 4 9 5 11 6 2 7 1 8 12 10 6 12 10 14 8 16
REMARK H PARENT 1 9 12 11 6 13 10 15 8 17
ROOT
ATOM      1  C   UNL     1      -8.298   7.084  -4.780  1.00  0.00     0.178 C 
ATOM      2  O   UNL     1      -7.610   5.994  -4.151  1.00  0.00    -0.342 OA
ATOM      3  C   UNL     1      -8.477   5.073  -3.513  1.00  0.00     0.279 C 
ATOM      4  C   UNL     1      -9.330   5.747  -2.433  1.00  0.00     0.201 C 
ATOM      5  C   UNL     1     -10.108   6.932  -3.010  1.00  0.00     0.179 C 
ATOM      6  C   UNL     1      -9.189   7.875  -3.797  1.00  0.00     0.177 C 
ENDROOT
BRANCH   1   7
ATOM      7  C   UNL     1      -7.231   7.991  -5.414  1.00  0.00     0.191 C 
BRANCH   7   8
ATOM      8  O   UNL     1      -7.770   8.770  -6.477  1.00  0.00    -0.394 OA
ATOM      9  H   UNL     1      -7.328   8.472  -7.294  1.00  0.00     0.210 HD
ENDBRANCH   7   8
ENDBRANCH   1   7
BRANCH   6  10
ATOM     10  O   UNL     1      -9.995   8.826  -4.507  1.00  0.00    -0.387 OA
ATOM     11  H   UNL     1     -10.753   8.329  -4.880  1.00  0.00     0.211 HD
ENDBRANCH   6  10
BRANCH   3  12
ATOM     12  O   UNL     1      -9.320   4.439  -4.467  1.00  0.00    -0.366 OA
ATOM     13  H   UNL     1     -10.212   4.471  -4.079  1.00  0.00     0.213 HD
ENDBRANCH   3  12
BRANCH   5  14
ATOM     14  O   UNL     1     -10.728   7.633  -1.917  1.00  0.00    -0.387 OA
ATOM     15  H   UNL     1     -10.739   8.574  -2.178  1.00  0.00     0.211 HD
ENDBRANCH   5  14
BRANCH   4  16
ATOM     16  O   UNL     1     -10.264   4.814  -1.860  1.00  0.00    -0.385 OA
ATOM     17  H   UNL     1     -11.077   4.893  -2.400  1.00  0.00     0.211 HD
ENDBRANCH   4  16
TORSDOF 6
ENDMDL
