REMARK SMILES Cn1c(=O)c2c(ncn2C)n(C)c1=O
REMARK SMILES IDX 1 1 2 2 3 3 4 4 5 5 6 6 7 7 8 8 9 9 10 10 11 11 12 12 13 13
REMARK SMILES IDX 14 14
REMARK H PARENT
ROOT
ATOM      1  C   UNL     1      -1.401   2.813   0.377  1.00  0.00     0.159 C 
ATOM      2  N   UNL     1      -0.912   1.466   0.156  1.00  0.00    -0.261 N 
ATOM      3  C   UNL     1       0.470   1.261   0.143  1.00  0.00     0.282 C 
ATOM      4  O   UNL     1       1.306   2.144   0.306  1.00  0.00    -0.267 OA
ATOM      5  C   UNL     1       0.822  -0.098  -0.082  1.00  0.00     0.152 A 
ATOM      6  C   UNL     1      -0.096  -1.087  -0.264  1.00  0.00     0.167 A 
ATOM      7  N   UNL     1       0.493  -2.299  -0.460  1.00  0.00    -0.218 NA
ATOM      8  C   UNL     1       1.786  -2.050  -0.398  1.00  0.00     0.202 A 
ATOM      9  N   UNL     1       2.033  -0.722  -0.169  1.00  0.00    -0.328 N 
ATOM     10  C   UNL     1       3.331  -0.107  -0.044  1.00  0.00     0.151 C 
ATOM     11  N   UNL     1      -1.447  -0.834  -0.242  1.00  0.00    -0.279 N 
ATOM     12  C   UNL     1      -2.392  -1.917  -0.441  1.00  0.00     0.157 C 
ATOM     13  C   UNL     1      -1.894   0.470  -0.028  1.00  0.00     0.332 C 
ATOM     14  O   UNL     1      -3.096   0.751   0.001  1.00  0.00    -0.247 OA
ENDROOT
TORSDOF 0
