MODEL 1
REMARK VINA RESULT:    -4.976      0.000      0.000
REMARK INTER + INTRA:          -4.976
REMARK INTER:                  -4.976
REMARK INTRA:                   0.000
REMARK UNBOUND:                 0.000
REMARK SMILES Cn1c(=O)c2c(ncn2C)n(C)c1=O
REMARK SMILES IDX 1 1 2 2 3 3 4 4 5 5 6 6 7 7 8 8 9 9 10 10 11 11 12 12 13 13
REMARK SMILES IDX 14 14
REMARK H PARENT
ROOT
ATOM      1  C   UNL     1       7.361   2.262  -3.333  1.00  0.00     0.159 C 
ATOM      2  N   UNL     1       8.610   2.705  -2.744  1.00  0.00    -0.261 N 
ATOM      3  C   UNL     1       9.793   2.452  -3.443  1.00  0.00     0.282 C 
ATOM      4  O   UNL     1       9.853   1.879  -4.526  1.00  0.00    -0.267 OA
ATOM      5  C   UNL     1      10.946   2.934  -2.764  1.00  0.00     0.152 A 
ATOM      6  C   UNL     1      10.893   3.572  -1.563  1.00  0.00     0.167 A 
ATOM      7  N   UNL     1      12.130   3.934  -1.123  1.00  0.00    -0.218 NA
ATOM      8  C   UNL     1      12.950   3.513  -2.065  1.00  0.00     0.202 A 
ATOM      9  N   UNL     1      12.272   2.898  -3.085  1.00  0.00    -0.328 N 
ATOM     10  C   UNL     1      12.857   2.323  -4.271  1.00  0.00     0.151 C 
ATOM     11  N   UNL     1       9.702   3.797  -0.914  1.00  0.00    -0.279 N 
ATOM     12  C   UNL     1       9.690   4.480   0.366  1.00  0.00     0.157 C 
ATOM     13  C   UNL     1       8.513   3.362  -1.500  1.00  0.00     0.332 C 
ATOM     14  O   UNL     1       7.417   3.539  -0.959  1.00  0.00    -0.247 OA
ENDROOT
TORSDOF 0
ENDMDL
