REMARK SMILES CC1(C)SC2C(NC(=O)Cc3ccccc3)C(=O)N2C1C(=O)O
REMARK SMILES IDX 1 1 2 2 3 3 4 4 5 5 6 6 17 7 18 8 19 9 20 10 21 11 22 12
REMARK SMILES IDX 23 13 7 15 8 16 9 17 10 19 11 20 12 21 16 22 13 23 15 24
REMARK SMILES IDX 14 25
REMARK H PARENT 23 14 7 18
ROOT
ATOM      1  C   UNL     1      -3.432   0.395  -2.426  1.00  0.00     0.026 C 
ATOM      2  C   UNL     1      -3.675   0.522  -0.912  1.00  0.00     0.044 C 
ATOM      3  C   UNL     1      -5.116   1.000  -0.695  1.00  0.00     0.026 C 
ATOM      4  S   UNL     1      -2.539   1.845  -0.274  1.00  0.00    -0.125 SA
ATOM      5  C   UNL     1      -1.386   0.672   0.542  1.00  0.00     0.176 C 
ATOM      6  C   UNL     1      -0.099   0.349  -0.267  1.00  0.00     0.205 C 
ATOM      7  C   UNL     1      -0.874  -0.932  -0.678  1.00  0.00     0.250 C 
ATOM      8  O   UNL     1      -0.746  -1.817  -1.491  1.00  0.00    -0.272 OA
ATOM      9  N   UNL     1      -1.882  -0.669   0.201  1.00  0.00    -0.311 N 
ATOM     10  C   UNL     1      -3.287  -0.788  -0.178  1.00  0.00     0.211 C 
ENDROOT
BRANCH  10  11
ATOM     11  C   UNL     1      -4.152  -1.098   1.049  1.00  0.00     0.327 C 
ATOM     12  O   UNL     1      -5.333  -1.414   1.020  1.00  0.00    -0.250 OA
BRANCH  11  13
ATOM     13  O   UNL     1      -3.532  -0.971   2.240  1.00  0.00    -0.480 OA
ATOM     14  H   UNL     1      -4.221  -1.196   2.899  1.00  0.00     0.296 HD
ENDBRANCH  11  13
ENDBRANCH  10  11
BRANCH   6  15
ATOM     15  N   UNL     1       1.147   0.089   0.508  1.00  0.00    -0.341 N 
ATOM     16  C   UNL     1       1.671   1.020   1.375  1.00  0.00     0.225 C 
ATOM     17  O   UNL     1       1.091   2.071   1.636  1.00  0.00    -0.275 OA
ATOM     18  H   UNL     1       1.728  -0.704   0.250  1.00  0.00     0.164 HD
BRANCH  16  19
ATOM     19  C   UNL     1       2.973   0.624   2.050  1.00  0.00     0.135 C 
BRANCH  19  20
ATOM     20  C   UNL     1       4.027   0.107   1.099  1.00  0.00    -0.039 A 
ATOM     21  C   UNL     1       4.558   0.945   0.108  1.00  0.00     0.004 A 
ATOM     22  C   UNL     1       4.482  -1.216   1.190  1.00  0.00     0.004 A 
ATOM     23  C   UNL     1       5.517   0.463  -0.783  1.00  0.00     0.000 A 
ATOM     24  C   UNL     1       5.441  -1.694   0.296  1.00  0.00     0.000 A 
ATOM     25  C   UNL     1       5.956  -0.856  -0.691  1.00  0.00     0.000 A 
ENDBRANCH  19  20
ENDBRANCH  16  19
ENDBRANCH   6  15
TORSDOF 5
