REMARK SMILES CC(C)CCCC(C)C1CCC2C3CC=C4CC(O)CCC4(C)C3CCC12C
REMARK SMILES IDX 6 1 5 2 4 3 2 4 1 5 3 6 7 7 8 8 9 9 10 10 27 11 11 12 12 13
REMARK SMILES IDX 26 14 13 15 25 16 24 17 14 18 22 19 15 20 16 21 21 22 17 23
REMARK SMILES IDX 20 24 18 25 28 26 23 27 19 28
REMARK H PARENT 19 29
ROOT
ATOM      1  C   UNL     1       3.650  -0.360  -0.294  1.00  0.00     0.003 C 
ENDROOT
BRANCH   1   2
ATOM      2  C   UNL     1       4.247   0.823   0.476  1.00  0.00     0.001 C 
BRANCH   2   3
ATOM      3  C   UNL     1       5.297   0.407   1.516  1.00  0.00     0.003 C 
BRANCH   3   4
ATOM      4  C   UNL     1       6.562  -0.279   0.965  1.00  0.00    -0.017 C 
ATOM      5  C   UNL     1       7.505  -0.625   2.121  1.00  0.00     0.007 C 
ATOM      6  C   UNL     1       7.297   0.584  -0.061  1.00  0.00     0.007 C 
ENDBRANCH   3   4
ENDBRANCH   2   3
ENDBRANCH   1   2
BRANCH   1   7
ATOM      7  C   UNL     1       2.630   0.012  -1.409  1.00  0.00    -0.011 C 
ATOM      8  C   UNL     1       3.423   0.647  -2.568  1.00  0.00     0.008 C 
BRANCH   7   9
ATOM      9  C   UNL     1       1.414   0.892  -0.935  1.00  0.00    -0.002 C 
ATOM     10  C   UNL     1       0.685   1.592  -2.101  1.00  0.00     0.005 C 
ATOM     11  C   UNL     1       0.213   0.130  -0.246  1.00  0.00    -0.026 C 
ATOM     12  C   UNL     1      -0.346   0.595  -2.604  1.00  0.00     0.005 C 
ATOM     13  C   UNL     1      -0.580  -0.424  -1.468  1.00  0.00    -0.001 C 
ATOM     14  C   UNL     1      -0.639   1.127   0.589  1.00  0.00     0.007 C 
ATOM     15  C   UNL     1      -2.090  -0.707  -1.268  1.00  0.00     0.000 C 
ATOM     16  C   UNL     1      -2.074   0.662   0.850  1.00  0.00     0.005 C 
ATOM     17  C   UNL     1      -2.819   0.408  -0.473  1.00  0.00     0.003 C 
ATOM     18  C   UNL     1      -2.333  -2.109  -0.670  1.00  0.00     0.031 C 
ATOM     19  C   UNL     1      -4.360   0.098  -0.334  1.00  0.00    -0.008 C 
ATOM     20  C   UNL     1      -3.682  -2.310  -0.049  1.00  0.00    -0.027 C 
ATOM     21  C   UNL     1      -4.596  -1.340   0.116  1.00  0.00    -0.065 C 
ATOM     22  C   UNL     1      -5.080   1.091   0.632  1.00  0.00     0.014 C 
ATOM     23  C   UNL     1      -5.917  -1.601   0.798  1.00  0.00     0.063 C 
ATOM     24  C   UNL     1      -5.255   0.541   2.052  1.00  0.00     0.033 C 
ATOM     25  C   UNL     1      -6.090  -0.747   2.064  1.00  0.00     0.118 C 
ATOM     26  C   UNL     1       0.661  -0.986   0.708  1.00  0.00     0.012 C 
ATOM     27  C   UNL     1      -5.023   0.273  -1.729  1.00  0.00     0.016 C 
BRANCH  25  28
ATOM     28  O   UNL     1      -7.475  -0.415   2.190  1.00  0.00    -0.393 OA
ATOM     29  H   UNL     1      -7.575   0.130   2.989  1.00  0.00     0.210 HD
ENDBRANCH  25  28
ENDBRANCH   7   9
ENDBRANCH   1   7
TORSDOF 6
