MODEL 1
REMARK VINA RESULT:    -9.535      0.000      0.000
REMARK INTER + INTRA:         -13.160
REMARK INTER:                 -12.600
REMARK INTRA:                  -0.560
REMARK UNBOUND:                -0.560
REMARK SMILES CC(C)CCCC(C)C1CCC2C3CC=C4CC(O)CCC4(C)C3CCC12C
REMARK SMILES IDX 6 1 5 2 4 3 2 4 1 5 3 6 7 7 8 8 9 9 10 10 27 11 11 12 12 13
REMARK SMILES IDX 26 14 13 15 25 16 24 17 14 18 22 19 15 20 16 21 21 22 17 23
REMARK SMILES IDX 20 24 18 25 28 26 23 27 19 28
REMARK H PARENT 19 29
ROOT
ATOM      1  C   UNL     1      -1.187  13.544 -19.656  1.00  0.00     0.003 C 
ENDROOT
BRANCH   1   2
ATOM      2  C   UNL     1      -1.604  14.439 -18.484  1.00  0.00     0.001 C 
BRANCH   2   3
ATOM      3  C   UNL     1      -1.417  15.937 -18.764  1.00  0.00     0.003 C 
BRANCH   3   4
ATOM      4  C   UNL     1      -1.811  16.894 -17.622  1.00  0.00    -0.017 C 
ATOM      5  C   UNL     1      -3.335  16.921 -17.476  1.00  0.00     0.007 C 
ATOM      6  C   UNL     1      -1.288  18.314 -17.841  1.00  0.00     0.007 C 
ENDBRANCH   3   4
ENDBRANCH   2   3
ENDBRANCH   1   2
BRANCH   1   7
ATOM      7  C   UNL     1      -0.227  12.373 -19.296  1.00  0.00    -0.011 C 
ATOM      8  C   UNL     1       1.070  12.574 -20.103  1.00  0.00     0.008 C 
BRANCH   7   9
ATOM      9  C   UNL     1      -0.841  10.933 -19.459  1.00  0.00    -0.002 C 
ATOM     10  C   UNL     1       0.171   9.904 -20.006  1.00  0.00     0.005 C 
ATOM     11  C   UNL     1      -1.316  10.210 -18.135  1.00  0.00    -0.026 C 
ATOM     12  C   UNL     1       0.905   9.358 -18.792  1.00  0.00     0.005 C 
ATOM     13  C   UNL     1       0.020   9.648 -17.561  1.00  0.00    -0.001 C 
ATOM     14  C   UNL     1      -2.318   9.073 -18.481  1.00  0.00     0.007 C 
ATOM     15  C   UNL     1      -0.070   8.413 -16.629  1.00  0.00     0.000 C 
ATOM     16  C   UNL     1      -2.430   7.987 -17.409  1.00  0.00     0.005 C 
ATOM     17  C   UNL     1      -1.062   7.335 -17.140  1.00  0.00     0.003 C 
ATOM     18  C   UNL     1      -0.348   8.822 -15.167  1.00  0.00     0.031 C 
ATOM     19  C   UNL     1      -1.085   6.080 -16.184  1.00  0.00    -0.008 C 
ATOM     20  C   UNL     1      -0.872   7.725 -14.290  1.00  0.00    -0.027 C 
ATOM     21  C   UNL     1      -1.212   6.501 -14.723  1.00  0.00    -0.065 C 
ATOM     22  C   UNL     1      -2.219   5.073 -16.555  1.00  0.00     0.014 C 
ATOM     23  C   UNL     1      -1.783   5.459 -13.792  1.00  0.00     0.063 C 
ATOM     24  C   UNL     1      -3.483   5.236 -15.705  1.00  0.00     0.033 C 
ATOM     25  C   UNL     1      -3.196   5.023 -14.212  1.00  0.00     0.118 C 
ATOM     26  C   UNL     1      -2.023  11.146 -17.146  1.00  0.00     0.012 C 
ATOM     27  C   UNL     1       0.260   5.318 -16.343  1.00  0.00     0.016 C 
BRANCH  25  28
ATOM     28  O   UNL     1      -3.348   3.639 -13.891  1.00  0.00    -0.393 OA
ATOM     29  H   UNL     1      -4.296   3.471 -13.755  1.00  0.00     0.210 HD
ENDBRANCH  25  28
ENDBRANCH   7   9
ENDBRANCH   1   7
TORSDOF 6
ENDMDL
MODEL 2
REMARK VINA RESULT:    -9.150      1.601      2.541
REMARK INTER + INTRA:         -12.652
REMARK INTER:                 -11.613
REMARK INTRA:                  -1.039
REMARK UNBOUND:                -0.560
REMARK SMILES CC(C)CCCC(C)C1CCC2C3CC=C4CC(O)CCC4(C)C3CCC12C
REMARK SMILES IDX 6 1 5 2 4 3 2 4 1 5 3 6 7 7 8 8 9 9 10 10 27 11 11 12 12 13
REMARK SMILES IDX 26 14 13 15 25 16 24 17 14 18 22 19 15 20 16 21 21 22 17 23
REMARK SMILES IDX 20 24 18 25 28 26 23 27 19 28
REMARK H PARENT 19 29
ROOT
ATOM      1  C   UNL     1      -0.734  13.474 -19.149  1.00  0.00     0.003 C 
ENDROOT
BRANCH   1   2
ATOM      2  C   UNL     1      -2.057  13.342 -19.911  1.00  0.00     0.001 C 
BRANCH   2   3
ATOM      3  C   UNL     1      -1.884  13.330 -21.437  1.00  0.00     0.003 C 
BRANCH   3   4
ATOM      4  C   UNL     1      -2.921  12.512 -22.230  1.00  0.00    -0.017 C 
ATOM      5  C   UNL     1      -3.503  11.414 -21.336  1.00  0.00     0.007 C 
ATOM      6  C   UNL     1      -2.333  11.890 -23.497  1.00  0.00     0.007 C 
ENDBRANCH   3   4
ENDBRANCH   2   3
ENDBRANCH   1   2
BRANCH   1   7
ATOM      7  C   UNL     1       0.197  12.228 -19.201  1.00  0.00    -0.011 C 
ATOM      8  C   UNL     1       1.264  12.493 -20.281  1.00  0.00     0.008 C 
BRANCH   7   9
ATOM      9  C   UNL     1      -0.541  10.850 -19.384  1.00  0.00    -0.002 C 
ATOM     10  C   UNL     1       0.379   9.740 -19.933  1.00  0.00     0.005 C 
ATOM     11  C   UNL     1      -1.092  10.160 -18.073  1.00  0.00    -0.026 C 
ATOM     12  C   UNL     1       1.050   9.119 -18.719  1.00  0.00     0.005 C 
ATOM     13  C   UNL     1       0.182   9.475 -17.493  1.00  0.00    -0.001 C 
ATOM     14  C   UNL     1      -2.188   9.121 -18.440  1.00  0.00     0.007 C 
ATOM     15  C   UNL     1      -0.027   8.244 -16.575  1.00  0.00     0.000 C 
ATOM     16  C   UNL     1      -2.408   8.039 -17.380  1.00  0.00     0.005 C 
ATOM     17  C   UNL     1      -1.106   7.264 -17.106  1.00  0.00     0.003 C 
ATOM     18  C   UNL     1      -0.282   8.661 -15.111  1.00  0.00     0.031 C 
ATOM     19  C   UNL     1      -1.252   6.007 -16.164  1.00  0.00    -0.008 C 
ATOM     20  C   UNL     1      -0.910   7.607 -14.250  1.00  0.00    -0.027 C 
ATOM     21  C   UNL     1      -1.354   6.422 -14.700  1.00  0.00    -0.065 C 
ATOM     22  C   UNL     1      -2.467   5.109 -16.556  1.00  0.00     0.014 C 
ATOM     23  C   UNL     1      -2.025   5.427 -13.785  1.00  0.00     0.063 C 
ATOM     24  C   UNL     1      -3.720   5.377 -15.715  1.00  0.00     0.033 C 
ATOM     25  C   UNL     1      -3.467   5.124 -14.222  1.00  0.00     0.118 C 
ATOM     26  C   UNL     1      -1.723  11.146 -17.080  1.00  0.00     0.012 C 
ATOM     27  C   UNL     1       0.021   5.128 -16.319  1.00  0.00     0.016 C 
BRANCH  25  28
ATOM     28  O   UNL     1      -3.746   3.755 -13.917  1.00  0.00    -0.393 OA
ATOM     29  H   UNL     1      -4.119   3.346 -14.717  1.00  0.00     0.210 HD
ENDBRANCH  25  28
ENDBRANCH   7   9
ENDBRANCH   1   7
TORSDOF 6
ENDMDL
MODEL 3
REMARK VINA RESULT:    -8.769      2.109      4.611
REMARK INTER + INTRA:         -12.148
REMARK INTER:                 -11.562
REMARK INTRA:                  -0.586
REMARK UNBOUND:                -0.560
REMARK SMILES CC(C)CCCC(C)C1CCC2C3CC=C4CC(O)CCC4(C)C3CCC12C
REMARK SMILES IDX 6 1 5 2 4 3 2 4 1 5 3 6 7 7 8 8 9 9 10 10 27 11 11 12 12 13
REMARK SMILES IDX 26 14 13 15 25 16 24 17 14 18 22 19 15 20 16 21 21 22 17 23
REMARK SMILES IDX 20 24 18 25 28 26 23 27 19 28
REMARK H PARENT 19 29
ROOT
ATOM      1  C   UNL     1       1.234  12.120 -20.648  1.00  0.00     0.003 C 
ENDROOT
BRANCH   1   2
ATOM      2  C   UNL     1       1.529  11.210 -21.845  1.00  0.00     0.001 C 
BRANCH   2   3
ATOM      3  C   UNL     1       2.968  11.333 -22.366  1.00  0.00     0.003 C 
BRANCH   3   4
ATOM      4  C   UNL     1       3.130  11.941 -23.773  1.00  0.00    -0.017 C 
ATOM      5  C   UNL     1       2.794  10.885 -24.831  1.00  0.00     0.007 C 
ATOM      6  C   UNL     1       4.537  12.488 -24.017  1.00  0.00     0.007 C 
ENDBRANCH   3   4
ENDBRANCH   2   3
ENDBRANCH   1   2
BRANCH   1   7
ATOM      7  C   UNL     1      -0.165  11.934 -19.993  1.00  0.00    -0.011 C 
ATOM      8  C   UNL     1      -0.948  13.247 -20.192  1.00  0.00     0.008 C 
BRANCH   7   9
ATOM      9  C   UNL     1      -0.142  11.448 -18.496  1.00  0.00    -0.002 C 
ATOM     10  C   UNL     1      -1.248  12.093 -17.635  1.00  0.00     0.005 C 
ATOM     11  C   UNL     1      -0.424   9.914 -18.244  1.00  0.00    -0.026 C 
ATOM     12  C   UNL     1      -2.475  11.214 -17.809  1.00  0.00     0.005 C 
ATOM     13  C   UNL     1      -1.979   9.841 -18.311  1.00  0.00    -0.001 C 
ATOM     14  C   UNL     1       0.112   9.499 -16.844  1.00  0.00     0.007 C 
ATOM     15  C   UNL     1      -2.671   8.680 -17.554  1.00  0.00     0.000 C 
ATOM     16  C   UNL     1      -0.547   8.244 -16.266  1.00  0.00     0.005 C 
ATOM     17  C   UNL     1      -2.071   8.428 -16.146  1.00  0.00     0.003 C 
ATOM     18  C   UNL     1      -2.727   7.395 -18.407  1.00  0.00     0.031 C 
ATOM     19  C   UNL     1      -2.836   7.269 -15.397  1.00  0.00    -0.008 C 
ATOM     20  C   UNL     1      -2.973   6.132 -17.639  1.00  0.00    -0.027 C 
ATOM     21  C   UNL     1      -3.019   6.053 -16.299  1.00  0.00    -0.065 C 
ATOM     22  C   UNL     1      -2.129   6.853 -14.068  1.00  0.00     0.014 C 
ATOM     23  C   UNL     1      -3.219   4.737 -15.588  1.00  0.00     0.063 C 
ATOM     24  C   UNL     1      -1.234   5.617 -14.215  1.00  0.00     0.033 C 
ATOM     25  C   UNL     1      -2.032   4.389 -14.676  1.00  0.00     0.118 C 
ATOM     26  C   UNL     1       0.245   8.990 -19.271  1.00  0.00     0.012 C 
ATOM     27  C   UNL     1      -4.249   7.786 -15.007  1.00  0.00     0.016 C 
BRANCH  25  28
ATOM     28  O   UNL     1      -2.538   3.694 -13.533  1.00  0.00    -0.393 OA
ATOM     29  H   UNL     1      -1.855   3.728 -12.842  1.00  0.00     0.210 HD
ENDBRANCH  25  28
ENDBRANCH   7   9
ENDBRANCH   1   7
TORSDOF 6
ENDMDL
MODEL 4
REMARK VINA RESULT:    -8.259      3.012      8.317
REMARK INTER + INTRA:         -11.474
REMARK INTER:                 -10.512
REMARK INTRA:                  -0.962
REMARK UNBOUND:                -0.560
REMARK SMILES CC(C)CCCC(C)C1CCC2C3CC=C4CC(O)CCC4(C)C3CCC12C
REMARK SMILES IDX 6 1 5 2 4 3 2 4 1 5 3 6 7 7 8 8 9 9 10 10 27 11 11 12 12 13
REMARK SMILES IDX 26 14 13 15 25 16 24 17 14 18 22 19 15 20 16 21 21 22 17 23
REMARK SMILES IDX 20 24 18 25 28 26 23 27 19 28
REMARK H PARENT 19 29
ROOT
ATOM      1  C   UNL     1      -1.698   5.443 -14.192  1.00  0.00     0.003 C 
ENDROOT
BRANCH   1   2
ATOM      2  C   UNL     1      -2.721   4.327 -14.428  1.00  0.00     0.001 C 
BRANCH   2   3
ATOM      3  C   UNL     1      -3.497   4.479 -15.745  1.00  0.00     0.003 C 
BRANCH   3   4
ATOM      4  C   UNL     1      -5.034   4.471 -15.630  1.00  0.00    -0.017 C 
ATOM      5  C   UNL     1      -5.654   4.638 -17.020  1.00  0.00     0.007 C 
ATOM      6  C   UNL     1      -5.558   5.562 -14.696  1.00  0.00     0.007 C 
ENDBRANCH   3   4
ENDBRANCH   2   3
ENDBRANCH   1   2
BRANCH   1   7
ATOM      7  C   UNL     1      -1.311   6.275 -15.449  1.00  0.00    -0.011 C 
ATOM      8  C   UNL     1      -0.034   5.649 -16.042  1.00  0.00     0.008 C 
BRANCH   7   9
ATOM      9  C   UNL     1      -1.189   7.826 -15.211  1.00  0.00    -0.002 C 
ATOM     10  C   UNL     1       0.223   8.373 -15.510  1.00  0.00     0.005 C 
ATOM     11  C   UNL     1      -2.071   8.757 -16.135  1.00  0.00    -0.026 C 
ATOM     12  C   UNL     1       0.241   8.688 -16.996  1.00  0.00     0.005 C 
ATOM     13  C   UNL     1      -1.230   8.826 -17.445  1.00  0.00    -0.001 C 
ATOM     14  C   UNL     1      -2.230  10.158 -15.479  1.00  0.00     0.007 C 
ATOM     15  C   UNL     1      -1.427  10.065 -18.354  1.00  0.00     0.000 C 
ATOM     16  C   UNL     1      -2.576  11.277 -16.465  1.00  0.00     0.005 C 
ATOM     17  C   UNL     1      -1.502  11.396 -17.561  1.00  0.00     0.003 C 
ATOM     18  C   UNL     1      -2.623   9.884 -19.313  1.00  0.00     0.031 C 
ATOM     19  C   UNL     1      -1.658  12.632 -18.531  1.00  0.00    -0.008 C 
ATOM     20  C   UNL     1      -3.156  11.151 -19.911  1.00  0.00    -0.027 C 
ATOM     21  C   UNL     1      -2.745  12.384 -19.572  1.00  0.00    -0.065 C 
ATOM     22  C   UNL     1      -1.942  13.959 -17.759  1.00  0.00     0.014 C 
ATOM     23  C   UNL     1      -3.362  13.621 -20.177  1.00  0.00     0.063 C 
ATOM     24  C   UNL     1      -3.429  14.328 -17.708  1.00  0.00     0.033 C 
ATOM     25  C   UNL     1      -4.017  14.517 -19.113  1.00  0.00     0.118 C 
ATOM     26  C   UNL     1      -3.485   8.214 -16.382  1.00  0.00     0.012 C 
ATOM     27  C   UNL     1      -0.315  12.834 -19.286  1.00  0.00     0.016 C 
BRANCH  25  28
ATOM     28  O   UNL     1      -3.854  15.879 -19.518  1.00  0.00    -0.393 OA
ATOM     29  H   UNL     1      -4.644  16.367 -19.232  1.00  0.00     0.210 HD
ENDBRANCH  25  28
ENDBRANCH   7   9
ENDBRANCH   1   7
TORSDOF 6
ENDMDL
MODEL 5
REMARK VINA RESULT:    -8.162      1.377      2.821
REMARK INTER + INTRA:         -11.346
REMARK INTER:                 -10.747
REMARK INTRA:                  -0.599
REMARK UNBOUND:                -0.560
REMARK SMILES CC(C)CCCC(C)C1CCC2C3CC=C4CC(O)CCC4(C)C3CCC12C
REMARK SMILES IDX 6 1 5 2 4 3 2 4 1 5 3 6 7 7 8 8 9 9 10 10 27 11 11 12 12 13
REMARK SMILES IDX 26 14 13 15 25 16 24 17 14 18 22 19 15 20 16 21 21 22 17 23
REMARK SMILES IDX 20 24 18 25 28 26 23 27 19 28
REMARK H PARENT 19 29
ROOT
ATOM      1  C   UNL     1       0.215  13.404 -20.219  1.00  0.00     0.003 C 
ENDROOT
BRANCH   1   2
ATOM      2  C   UNL     1      -0.954  14.335 -20.558  1.00  0.00     0.001 C 
BRANCH   2   3
ATOM      3  C   UNL     1      -1.237  15.381 -19.470  1.00  0.00     0.003 C 
BRANCH   3   4
ATOM      4  C   UNL     1      -2.699  15.484 -18.993  1.00  0.00    -0.017 C 
ATOM      5  C   UNL     1      -2.746  15.427 -17.463  1.00  0.00     0.007 C 
ATOM      6  C   UNL     1      -3.585  14.384 -19.579  1.00  0.00     0.007 C 
ENDBRANCH   3   4
ENDBRANCH   2   3
ENDBRANCH   1   2
BRANCH   1   7
ATOM      7  C   UNL     1      -0.160  11.911 -19.992  1.00  0.00    -0.011 C 
ATOM      8  C   UNL     1      -1.501  11.657 -20.710  1.00  0.00     0.008 C 
BRANCH   7   9
ATOM      9  C   UNL     1      -0.164  11.444 -18.489  1.00  0.00    -0.002 C 
ATOM     10  C   UNL     1      -1.301  12.081 -17.662  1.00  0.00     0.005 C 
ATOM     11  C   UNL     1      -0.427   9.908 -18.224  1.00  0.00    -0.026 C 
ATOM     12  C   UNL     1      -2.509  11.179 -17.854  1.00  0.00     0.005 C 
ATOM     13  C   UNL     1      -1.979   9.809 -18.327  1.00  0.00    -0.001 C 
ATOM     14  C   UNL     1       0.082   9.519 -16.807  1.00  0.00     0.007 C 
ATOM     15  C   UNL     1      -2.670   8.646 -17.571  1.00  0.00     0.000 C 
ATOM     16  C   UNL     1      -0.570   8.260 -16.229  1.00  0.00     0.005 C 
ATOM     17  C   UNL     1      -2.098   8.421 -16.147  1.00  0.00     0.003 C 
ATOM     18  C   UNL     1      -2.685   7.350 -18.410  1.00  0.00     0.031 C 
ATOM     19  C   UNL     1      -2.862   7.259 -15.401  1.00  0.00    -0.008 C 
ATOM     20  C   UNL     1      -2.928   6.093 -17.631  1.00  0.00    -0.027 C 
ATOM     21  C   UNL     1      -3.004   6.029 -16.292  1.00  0.00    -0.065 C 
ATOM     22  C   UNL     1      -2.180   6.871 -14.051  1.00  0.00     0.014 C 
ATOM     23  C   UNL     1      -3.199   4.719 -15.569  1.00  0.00     0.063 C 
ATOM     24  C   UNL     1      -1.262   5.649 -14.161  1.00  0.00     0.033 C 
ATOM     25  C   UNL     1      -2.028   4.402 -14.625  1.00  0.00     0.118 C 
ATOM     26  C   UNL     1       0.280   8.983 -19.224  1.00  0.00     0.012 C 
ATOM     27  C   UNL     1      -4.292   7.758 -15.051  1.00  0.00     0.016 C 
BRANCH  25  28
ATOM     28  O   UNL     1      -2.550   3.713 -13.486  1.00  0.00    -0.393 OA
ATOM     29  H   UNL     1      -1.967   2.956 -13.308  1.00  0.00     0.210 HD
ENDBRANCH  25  28
ENDBRANCH   7   9
ENDBRANCH   1   7
TORSDOF 6
ENDMDL
MODEL 6
REMARK VINA RESULT:    -7.984      2.493      4.590
REMARK INTER + INTRA:         -11.110
REMARK INTER:                 -10.526
REMARK INTRA:                  -0.584
REMARK UNBOUND:                -0.560
REMARK SMILES CC(C)CCCC(C)C1CCC2C3CC=C4CC(O)CCC4(C)C3CCC12C
REMARK SMILES IDX 6 1 5 2 4 3 2 4 1 5 3 6 7 7 8 8 9 9 10 10 27 11 11 12 12 13
REMARK SMILES IDX 26 14 13 15 25 16 24 17 14 18 22 19 15 20 16 21 21 22 17 23
REMARK SMILES IDX 20 24 18 25 28 26 23 27 19 28
REMARK H PARENT 19 29
ROOT
ATOM      1  C   UNL     1      -0.402  11.853 -18.180  1.00  0.00     0.003 C 
ENDROOT
BRANCH   1   2
ATOM      2  C   UNL     1      -0.097  11.625 -19.664  1.00  0.00     0.001 C 
BRANCH   2   3
ATOM      3  C   UNL     1       0.558  12.835 -20.345  1.00  0.00     0.003 C 
BRANCH   3   4
ATOM      4  C   UNL     1       0.704  12.753 -21.877  1.00  0.00    -0.017 C 
ATOM      5  C   UNL     1      -0.422  11.893 -22.457  1.00  0.00     0.007 C 
ATOM      6  C   UNL     1       2.059  12.190 -22.308  1.00  0.00     0.007 C 
ENDBRANCH   3   4
ENDBRANCH   2   3
ENDBRANCH   1   2
BRANCH   1   7
ATOM      7  C   UNL     1      -1.760  11.281 -17.679  1.00  0.00    -0.011 C 
ATOM      8  C   UNL     1      -2.582  12.462 -17.124  1.00  0.00     0.008 C 
BRANCH   7   9
ATOM      9  C   UNL     1      -1.647  10.078 -16.671  1.00  0.00    -0.002 C 
ATOM     10  C   UNL     1      -2.530  10.255 -15.418  1.00  0.00     0.005 C 
ATOM     11  C   UNL     1      -2.143   8.670 -17.189  1.00  0.00    -0.026 C 
ATOM     12  C   UNL     1      -3.895   9.700 -15.790  1.00  0.00     0.005 C 
ATOM     13  C   UNL     1      -3.687   8.766 -17.002  1.00  0.00    -0.001 C 
ATOM     14  C   UNL     1      -1.527   7.537 -16.319  1.00  0.00     0.007 C 
ATOM     15  C   UNL     1      -4.468   7.439 -16.830  1.00  0.00     0.000 C 
ATOM     16  C   UNL     1      -2.311   6.222 -16.353  1.00  0.00     0.005 C 
ATOM     17  C   UNL     1      -3.761   6.434 -15.883  1.00  0.00     0.003 C 
ATOM     18  C   UNL     1      -4.827   6.809 -18.192  1.00  0.00     0.031 C 
ATOM     19  C   UNL     1      -4.614   5.119 -15.704  1.00  0.00    -0.008 C 
ATOM     20  C   UNL     1      -5.186   5.354 -18.145  1.00  0.00    -0.027 C 
ATOM     21  C   UNL     1      -5.092   4.583 -17.050  1.00  0.00    -0.065 C 
ATOM     22  C   UNL     1      -3.839   4.010 -14.926  1.00  0.00     0.014 C 
ATOM     23  C   UNL     1      -5.421   3.110 -17.085  1.00  0.00     0.063 C 
ATOM     24  C   UNL     1      -3.178   2.972 -15.840  1.00  0.00     0.033 C 
ATOM     25  C   UNL     1      -4.210   2.241 -16.709  1.00  0.00     0.118 C 
ATOM     26  C   UNL     1      -1.753   8.380 -18.645  1.00  0.00     0.012 C 
ATOM     27  C   UNL     1      -5.872   5.462 -14.857  1.00  0.00     0.016 C 
BRANCH  25  28
ATOM     28  O   UNL     1      -4.690   1.089 -16.010  1.00  0.00    -0.393 OA
ATOM     29  H   UNL     1      -5.662   1.115 -16.035  1.00  0.00     0.210 HD
ENDBRANCH  25  28
ENDBRANCH   7   9
ENDBRANCH   1   7
TORSDOF 6
ENDMDL
MODEL 7
REMARK VINA RESULT:    -7.953      3.881      7.340
REMARK INTER + INTRA:         -11.070
REMARK INTER:                 -11.315
REMARK INTRA:                   0.246
REMARK UNBOUND:                -0.560
REMARK SMILES CC(C)CCCC(C)C1CCC2C3CC=C4CC(O)CCC4(C)C3CCC12C
REMARK SMILES IDX 6 1 5 2 4 3 2 4 1 5 3 6 7 7 8 8 9 9 10 10 27 11 11 12 12 13
REMARK SMILES IDX 26 14 13 15 25 16 24 17 14 18 22 19 15 20 16 21 21 22 17 23
REMARK SMILES IDX 20 24 18 25 28 26 23 27 19 28
REMARK H PARENT 19 29
ROOT
ATOM      1  C   UNL     1      -0.922   7.892 -14.532  1.00  0.00     0.003 C 
ENDROOT
BRANCH   1   2
ATOM      2  C   UNL     1      -0.026   7.835 -15.774  1.00  0.00     0.001 C 
BRANCH   2   3
ATOM      3  C   UNL     1      -0.256   9.001 -16.746  1.00  0.00     0.003 C 
BRANCH   3   4
ATOM      4  C   UNL     1       1.008   9.614 -17.380  1.00  0.00    -0.017 C 
ATOM      5  C   UNL     1       0.642  10.294 -18.702  1.00  0.00     0.007 C 
ATOM      6  C   UNL     1       2.106   8.577 -17.619  1.00  0.00     0.007 C 
ENDBRANCH   3   4
ENDBRANCH   2   3
ENDBRANCH   1   2
BRANCH   1   7
ATOM      7  C   UNL     1      -1.951   6.732 -14.394  1.00  0.00    -0.011 C 
ATOM      8  C   UNL     1      -1.415   5.539 -15.209  1.00  0.00     0.008 C 
BRANCH   7   9
ATOM      9  C   UNL     1      -3.436   7.111 -14.752  1.00  0.00    -0.002 C 
ATOM     10  C   UNL     1      -3.544   8.008 -16.003  1.00  0.00     0.005 C 
ATOM     11  C   UNL     1      -4.394   5.920 -15.155  1.00  0.00    -0.026 C 
ATOM     12  C   UNL     1      -3.592   7.061 -17.191  1.00  0.00     0.005 C 
ATOM     13  C   UNL     1      -4.025   5.681 -16.650  1.00  0.00    -0.001 C 
ATOM     14  C   UNL     1      -5.878   6.354 -14.990  1.00  0.00     0.007 C 
ATOM     15  C   UNL     1      -5.103   5.035 -17.555  1.00  0.00     0.000 C 
ATOM     16  C   UNL     1      -6.868   5.536 -15.824  1.00  0.00     0.005 C 
ATOM     17  C   UNL     1      -6.523   5.616 -17.322  1.00  0.00     0.003 C 
ATOM     18  C   UNL     1      -5.078   3.494 -17.462  1.00  0.00     0.031 C 
ATOM     19  C   UNL     1      -7.577   4.961 -18.296  1.00  0.00    -0.008 C 
ATOM     20  C   UNL     1      -6.320   2.808 -17.941  1.00  0.00    -0.027 C 
ATOM     21  C   UNL     1      -7.445   3.441 -18.311  1.00  0.00    -0.065 C 
ATOM     22  C   UNL     1      -9.042   5.372 -17.948  1.00  0.00     0.014 C 
ATOM     23  C   UNL     1      -8.681   2.684 -18.735  1.00  0.00     0.063 C 
ATOM     24  C   UNL     1      -9.783   4.332 -17.101  1.00  0.00     0.033 C 
ATOM     25  C   UNL     1      -9.879   2.978 -17.818  1.00  0.00     0.118 C 
ATOM     26  C   UNL     1      -4.198   4.659 -14.301  1.00  0.00     0.012 C 
ATOM     27  C   UNL     1      -7.299   5.474 -19.737  1.00  0.00     0.016 C 
BRANCH  25  28
ATOM     28  O   UNL     1     -11.066   2.945 -18.614  1.00  0.00    -0.393 OA
ATOM     29  H   UNL     1     -11.756   2.500 -18.094  1.00  0.00     0.210 HD
ENDBRANCH  25  28
ENDBRANCH   7   9
ENDBRANCH   1   7
TORSDOF 6
ENDMDL
MODEL 8
REMARK VINA RESULT:    -7.608      4.170      7.189
REMARK INTER + INTRA:         -10.614
REMARK INTER:                  -9.467
REMARK INTRA:                  -1.146
REMARK UNBOUND:                -0.560
REMARK SMILES CC(C)CCCC(C)C1CCC2C3CC=C4CC(O)CCC4(C)C3CCC12C
REMARK SMILES IDX 6 1 5 2 4 3 2 4 1 5 3 6 7 7 8 8 9 9 10 10 27 11 11 12 12 13
REMARK SMILES IDX 26 14 13 15 25 16 24 17 14 18 22 19 15 20 16 21 21 22 17 23
REMARK SMILES IDX 20 24 18 25 28 26 23 27 19 28
REMARK H PARENT 19 29
ROOT
ATOM      1  C   UNL     1      -0.596   8.550 -15.061  1.00  0.00     0.003 C 
ENDROOT
BRANCH   1   2
ATOM      2  C   UNL     1       0.324   8.124 -16.210  1.00  0.00     0.001 C 
BRANCH   2   3
ATOM      3  C   UNL     1       0.961   9.307 -16.952  1.00  0.00     0.003 C 
BRANCH   3   4
ATOM      4  C   UNL     1       0.816   9.303 -18.486  1.00  0.00    -0.017 C 
ATOM      5  C   UNL     1       0.786  10.743 -19.005  1.00  0.00     0.007 C 
ATOM      6  C   UNL     1      -0.435   8.559 -18.955  1.00  0.00     0.007 C 
ENDBRANCH   3   4
ENDBRANCH   2   3
ENDBRANCH   1   2
BRANCH   1   7
ATOM      7  C   UNL     1      -1.767   7.575 -14.742  1.00  0.00    -0.011 C 
ATOM      8  C   UNL     1      -1.318   6.682 -13.569  1.00  0.00     0.008 C 
BRANCH   7   9
ATOM      9  C   UNL     1      -2.307   6.756 -15.973  1.00  0.00    -0.002 C 
ATOM     10  C   UNL     1      -2.960   5.418 -15.568  1.00  0.00     0.005 C 
ATOM     11  C   UNL     1      -3.476   7.418 -16.807  1.00  0.00    -0.026 C 
ATOM     12  C   UNL     1      -4.412   5.741 -15.257  1.00  0.00     0.005 C 
ATOM     13  C   UNL     1      -4.733   7.083 -15.949  1.00  0.00    -0.001 C 
ATOM     14  C   UNL     1      -3.553   6.770 -18.218  1.00  0.00     0.007 C 
ATOM     15  C   UNL     1      -6.099   7.028 -16.678  1.00  0.00     0.000 C 
ATOM     16  C   UNL     1      -4.915   6.915 -18.902  1.00  0.00     0.005 C 
ATOM     17  C   UNL     1      -6.031   6.294 -18.043  1.00  0.00     0.003 C 
ATOM     18  C   UNL     1      -6.740   8.427 -16.795  1.00  0.00     0.031 C 
ATOM     19  C   UNL     1      -7.452   6.223 -18.726  1.00  0.00    -0.008 C 
ATOM     20  C   UNL     1      -7.816   8.548 -17.831  1.00  0.00    -0.027 C 
ATOM     21  C   UNL     1      -8.144   7.582 -18.705  1.00  0.00    -0.065 C 
ATOM     22  C   UNL     1      -7.381   5.676 -20.187  1.00  0.00     0.014 C 
ATOM     23  C   UNL     1      -9.204   7.791 -19.759  1.00  0.00     0.063 C 
ATOM     24  C   UNL     1      -7.373   6.780 -21.251  1.00  0.00     0.033 C 
ATOM     25  C   UNL     1      -8.638   7.646 -21.181  1.00  0.00     0.118 C 
ATOM     26  C   UNL     1      -3.302   8.929 -17.015  1.00  0.00     0.012 C 
ATOM     27  C   UNL     1      -8.334   5.229 -17.920  1.00  0.00     0.016 C 
BRANCH  25  28
ATOM     28  O   UNL     1      -9.655   7.073 -22.007  1.00  0.00    -0.393 OA
ATOM     29  H   UNL     1      -9.212   6.550 -22.697  1.00  0.00     0.210 HD
ENDBRANCH  25  28
ENDBRANCH   7   9
ENDBRANCH   1   7
TORSDOF 6
ENDMDL
MODEL 9
REMARK VINA RESULT:    -7.472      7.406     12.022
REMARK INTER + INTRA:         -10.434
REMARK INTER:                  -9.665
REMARK INTRA:                  -0.770
REMARK UNBOUND:                -0.560
REMARK SMILES CC(C)CCCC(C)C1CCC2C3CC=C4CC(O)CCC4(C)C3CCC12C
REMARK SMILES IDX 6 1 5 2 4 3 2 4 1 5 3 6 7 7 8 8 9 9 10 10 27 11 11 12 12 13
REMARK SMILES IDX 26 14 13 15 25 16 24 17 14 18 22 19 15 20 16 21 21 22 17 23
REMARK SMILES IDX 20 24 18 25 28 26 23 27 19 28
REMARK H PARENT 19 29
ROOT
ATOM      1  C   UNL     1       0.593  13.392 -22.065  1.00  0.00     0.003 C 
ENDROOT
BRANCH   1   2
ATOM      2  C   UNL     1       1.003  12.962 -20.653  1.00  0.00     0.001 C 
BRANCH   2   3
ATOM      3  C   UNL     1      -0.051  12.097 -19.948  1.00  0.00     0.003 C 
BRANCH   3   4
ATOM      4  C   UNL     1      -0.573  12.629 -18.599  1.00  0.00    -0.017 C 
ATOM      5  C   UNL     1      -1.364  11.530 -17.883  1.00  0.00     0.007 C 
ATOM      6  C   UNL     1      -1.447  13.873 -18.759  1.00  0.00     0.007 C 
ENDBRANCH   3   4
ENDBRANCH   2   3
ENDBRANCH   1   2
BRANCH   1   7
ATOM      7  C   UNL     1       1.767  13.691 -23.042  1.00  0.00    -0.011 C 
ATOM      8  C   UNL     1       1.560  12.817 -24.295  1.00  0.00     0.008 C 
BRANCH   7   9
ATOM      9  C   UNL     1       3.206  13.550 -22.420  1.00  0.00    -0.002 C 
ATOM     10  C   UNL     1       4.232  12.950 -23.403  1.00  0.00     0.005 C 
ATOM     11  C   UNL     1       3.935  14.891 -22.009  1.00  0.00    -0.026 C 
ATOM     12  C   UNL     1       4.785  14.124 -24.194  1.00  0.00     0.005 C 
ATOM     13  C   UNL     1       4.502  15.397 -23.369  1.00  0.00    -0.001 C 
ATOM     14  C   UNL     1       5.069  14.587 -20.990  1.00  0.00     0.007 C 
ATOM     15  C   UNL     1       5.741  16.326 -23.323  1.00  0.00     0.000 C 
ATOM     16  C   UNL     1       6.161  15.658 -20.928  1.00  0.00     0.005 C 
ATOM     17  C   UNL     1       6.815  15.858 -22.307  1.00  0.00     0.003 C 
ATOM     18  C   UNL     1       5.340  17.802 -23.116  1.00  0.00     0.031 C 
ATOM     19  C   UNL     1       8.076  16.807 -22.328  1.00  0.00    -0.008 C 
ATOM     20  C   UNL     1       6.441  18.698 -22.634  1.00  0.00    -0.027 C 
ATOM     21  C   UNL     1       7.663  18.274 -22.272  1.00  0.00    -0.065 C 
ATOM     22  C   UNL     1       9.080  16.485 -21.177  1.00  0.00     0.014 C 
ATOM     23  C   UNL     1       8.710  19.226 -21.746  1.00  0.00     0.063 C 
ATOM     24  C   UNL     1       8.920  17.396 -19.955  1.00  0.00     0.033 C 
ATOM     25  C   UNL     1       9.141  18.872 -20.314  1.00  0.00     0.118 C 
ATOM     26  C   UNL     1       3.004  15.918 -21.350  1.00  0.00     0.012 C 
ATOM     27  C   UNL     1       8.839  16.579 -23.663  1.00  0.00     0.016 C 
BRANCH  25  28
ATOM     28  O   UNL     1      10.528  19.193 -20.176  1.00  0.00    -0.393 OA
ATOM     29  H   UNL     1      10.880  18.663 -19.440  1.00  0.00     0.210 HD
ENDBRANCH  25  28
ENDBRANCH   7   9
ENDBRANCH   1   7
TORSDOF 6
ENDMDL
