MODEL 1
REMARK VINA RESULT:    -5.428      0.000      0.000
REMARK INTER + INTRA:          -7.239
REMARK INTER:                  -6.856
REMARK INTRA:                  -0.382
REMARK UNBOUND:                -0.382
REMARK SMILES CC(C)Cc1ccc(C(C)C(=O)O)cc1
REMARK SMILES IDX 5 1 6 2 7 3 8 4 14 5 15 6 4 7 2 8 1 9 3 10 9 11 10 12 11 13
REMARK SMILES IDX 12 14 13 15
REMARK H PARENT 13 16
ROOT
ATOM      1  C   UNL     1       1.856   2.295  -5.733  1.00  0.00    -0.048 A 
ATOM      2  C   UNL     1       1.181   1.071  -5.818  1.00  0.00     0.004 A 
ATOM      3  C   UNL     1      -0.009   0.866  -5.119  1.00  0.00     0.005 A 
ATOM      4  C   UNL     1      -0.558   1.882  -4.321  1.00  0.00    -0.034 A 
ATOM      5  C   UNL     1       0.124   3.104  -4.235  1.00  0.00     0.005 A 
ATOM      6  C   UNL     1       1.316   3.309  -4.935  1.00  0.00     0.004 A 
ENDROOT
BRANCH   1   7
ATOM      7  C   UNL     1       3.148   2.513  -6.484  1.00  0.00     0.038 C 
BRANCH   7   8
ATOM      8  C   UNL     1       3.833   1.209  -6.937  1.00  0.00    -0.013 C 
ATOM      9  C   UNL     1       4.696   1.478  -8.172  1.00  0.00     0.008 C 
ATOM     10  C   UNL     1       4.696   0.599  -5.828  1.00  0.00     0.008 C 
ENDBRANCH   7   8
ENDBRANCH   1   7
BRANCH   4  11
ATOM     11  C   UNL     1      -1.847   1.676  -3.547  1.00  0.00     0.126 C 
ATOM     12  C   UNL     1      -2.367   0.239  -3.642  1.00  0.00     0.025 C 
BRANCH  11  13
ATOM     13  C   UNL     1      -1.718   2.152  -2.111  1.00  0.00     0.310 C 
ATOM     14  O   UNL     1      -1.303   1.488  -1.173  1.00  0.00    -0.252 OA
BRANCH  13  15
ATOM     15  O   UNL     1      -2.155   3.409  -1.896  1.00  0.00    -0.481 OA
ATOM     16  H   UNL     1      -1.434   3.816  -1.370  1.00  0.00     0.296 HD
ENDBRANCH  13  15
ENDBRANCH  11  13
ENDBRANCH   4  11
TORSDOF 5
ENDMDL
