REMARK SMILES CC(C)Cc1ccc(C(C)C(=O)O)cc1
REMARK SMILES IDX 5 1 6 2 7 3 8 4 14 5 15 6 4 7 2 8 1 9 3 10 9 11 10 12 11 13
REMARK SMILES IDX 12 14 13 15
REMARK H PARENT 13 16
ROOT
ATOM      1  C   UNL     1      -0.822   0.273   0.757  1.00  0.00    -0.048 A 
ATOM      2  C   UNL     1       0.149  -0.724   0.907  1.00  0.00     0.004 A 
ATOM      3  C   UNL     1       1.455  -0.518   0.458  1.00  0.00     0.005 A 
ATOM      4  C   UNL     1       1.823   0.693  -0.147  1.00  0.00    -0.034 A 
ATOM      5  C   UNL     1       0.846   1.687  -0.300  1.00  0.00     0.005 A 
ATOM      6  C   UNL     1      -0.461   1.480   0.149  1.00  0.00     0.004 A 
ENDROOT
BRANCH   1   7
ATOM      7  C   UNL     1      -2.236   0.046   1.236  1.00  0.00     0.038 C 
BRANCH   7   8
ATOM      8  C   UNL     1      -3.039  -0.939   0.363  1.00  0.00    -0.013 C 
ATOM      9  C   UNL     1      -4.367  -1.273   1.046  1.00  0.00     0.008 C 
ATOM     10  C   UNL     1      -3.306  -0.379  -1.037  1.00  0.00     0.008 C 
ENDBRANCH   7   8
ENDBRANCH   1   7
BRANCH   4  11
ATOM     11  C   UNL     1       3.235   0.934  -0.649  1.00  0.00     0.126 C 
ATOM     12  C   UNL     1       4.286   0.779   0.454  1.00  0.00     0.025 C 
BRANCH  11  13
ATOM     13  C   UNL     1       3.547   0.087  -1.870  1.00  0.00     0.310 C 
ATOM     14  O   UNL     1       3.306   0.390  -3.029  1.00  0.00    -0.252 OA
BRANCH  13  15
ATOM     15  O   UNL     1       4.097  -1.112  -1.594  1.00  0.00    -0.481 OA
ATOM     16  H   UNL     1       4.182  -1.534  -2.475  1.00  0.00     0.296 HD
ENDBRANCH  13  15
ENDBRANCH  11  13
ENDBRANCH   4  11
TORSDOF 5
