REMARK SMILES NCCc1ccc(O)c(O)c1
REMARK SMILES IDX 3 1 2 2 1 3 4 6 5 7 11 8 6 9 9 10 7 11 10 12 8 14
REMARK H PARENT 1 4 1 5 10 13 8 15
ROOT
ATOM      1  C   UNL     1      -1.625   0.332   0.593  1.00  0.00     0.050 C 
ENDROOT
BRANCH   1   2
ATOM      2  C   UNL     1      -2.412  -0.217  -0.601  1.00  0.00     0.082 C 
BRANCH   2   3
ATOM      3  N   UNL     1      -3.850  -0.017  -0.422  1.00  0.00    -0.330 NA
ATOM      4  H   UNL     1      -4.339  -0.363  -1.248  1.00  0.00     0.118 HD
ATOM      5  H   UNL     1      -4.051   0.982  -0.374  1.00  0.00     0.118 HD
ENDBRANCH   2   3
ENDBRANCH   1   2
BRANCH   1   6
ATOM      6  C   UNL     1      -0.139   0.125   0.423  1.00  0.00    -0.043 A 
ATOM      7  C   UNL     1       0.476  -1.043   0.907  1.00  0.00     0.008 A 
ATOM      8  C   UNL     1       0.638   1.082  -0.245  1.00  0.00     0.054 A 
ATOM      9  C   UNL     1       1.848  -1.252   0.737  1.00  0.00     0.050 A 
ATOM     10  C   UNL     1       1.999   0.866  -0.409  1.00  0.00     0.157 A 
ATOM     11  C   UNL     1       2.603  -0.290   0.078  1.00  0.00     0.157 A 
BRANCH  10  12
ATOM     12  O   UNL     1       2.749   1.803  -1.061  1.00  0.00    -0.504 OA
ATOM     13  H   UNL     1       3.656   1.439  -1.049  1.00  0.00     0.293 HD
ENDBRANCH  10  12
BRANCH  11  14
ATOM     14  O   UNL     1       3.948  -0.437  -0.120  1.00  0.00    -0.504 OA
ATOM     15  H   UNL     1       4.220  -1.281   0.279  1.00  0.00     0.293 HD
ENDBRANCH  11  14
ENDBRANCH   1   6
TORSDOF 5
