MODEL 1
REMARK VINA RESULT:    -4.570      0.000      0.000
REMARK INTER + INTRA:          -5.593
REMARK INTER:                  -5.505
REMARK INTRA:                  -0.088
REMARK UNBOUND:                -0.088
REMARK SMILES NCCc1ccc(O)c(O)c1
REMARK SMILES IDX 3 1 2 2 1 3 4 6 5 7 11 8 6 9 9 10 7 11 10 12 8 14
REMARK H PARENT 1 4 1 5 10 13 8 15
ROOT
ATOM      1  C   UNL     1      -9.395   3.062  -2.684  1.00  0.00     0.050 C 
ENDROOT
BRANCH   1   2
ATOM      2  C   UNL     1      -9.798   2.911  -1.214  1.00  0.00     0.082 C 
BRANCH   2   3
ATOM      3  N   UNL     1     -11.078   2.215  -1.085  1.00  0.00    -0.330 NA
ATOM      4  H   UNL     1     -10.904   1.215  -0.985  1.00  0.00     0.118 HD
ATOM      5  H   UNL     1     -11.611   2.322  -1.949  1.00  0.00     0.118 HD
ENDBRANCH   2   3
ENDBRANCH   1   2
BRANCH   1   6
ATOM      6  C   UNL     1      -9.593   4.476  -3.174  1.00  0.00    -0.043 A 
ATOM      7  C   UNL     1      -9.372   4.799  -4.524  1.00  0.00     0.008 A 
ATOM      8  C   UNL     1     -10.027   5.477  -2.293  1.00  0.00     0.054 A 
ATOM      9  C   UNL     1      -9.571   6.102  -4.990  1.00  0.00     0.050 A 
ATOM     10  C   UNL     1     -10.222   6.767  -2.764  1.00  0.00     0.157 A 
ATOM     11  C   UNL     1      -9.995   7.081  -4.102  1.00  0.00     0.157 A 
BRANCH  10  12
ATOM     12  O   UNL     1     -10.645   7.737  -1.900  1.00  0.00    -0.504 OA
ATOM     13  H   UNL     1     -11.386   7.323  -1.415  1.00  0.00     0.293 HD
ENDBRANCH  10  12
BRANCH  11  14
ATOM     14  O   UNL     1     -10.208   8.373  -4.497  1.00  0.00    -0.504 OA
ATOM     15  H   UNL     1      -9.638   8.949  -3.960  1.00  0.00     0.293 HD
ENDBRANCH  11  14
ENDBRANCH   1   6
TORSDOF 5
ENDMDL
MODEL 2
REMARK VINA RESULT:    -4.364      0.955      2.048
REMARK INTER + INTRA:          -5.345
REMARK INTER:                  -5.263
REMARK INTRA:                  -0.082
REMARK UNBOUND:                -0.088
REMARK SMILES NCCc1ccc(O)c(O)c1
REMARK SMILES IDX 3 1 2 2 1 3 4 6 5 7 11 8 6 9 9 10 7 11 10 12 8 14
REMARK H PARENT 1 4 1 5 10 13 8 15
ROOT
ATOM      1  C   UNL     1      -9.332   2.870  -2.414  1.00  0.00     0.050 C 
ENDROOT
BRANCH   1   2
ATOM      2  C   UNL     1      -9.910   2.671  -1.009  1.00  0.00     0.082 C 
BRANCH   2   3
ATOM      3  N   UNL     1     -11.289   2.187  -1.070  1.00  0.00    -0.330 NA
ATOM      4  H   UNL     1     -11.917   2.936  -0.775  1.00  0.00     0.118 HD
ATOM      5  H   UNL     1     -11.415   1.432  -0.396  1.00  0.00     0.118 HD
ENDBRANCH   2   3
ENDBRANCH   1   2
BRANCH   1   6
ATOM      6  C   UNL     1      -9.645   4.244  -2.955  1.00  0.00    -0.043 A 
ATOM      7  C   UNL     1      -9.889   5.315  -2.078  1.00  0.00     0.008 A 
ATOM      8  C   UNL     1      -9.666   4.473  -4.338  1.00  0.00     0.054 A 
ATOM      9  C   UNL     1     -10.161   6.596  -2.570  1.00  0.00     0.050 A 
ATOM     10  C   UNL     1      -9.937   5.747  -4.818  1.00  0.00     0.157 A 
ATOM     11  C   UNL     1     -10.184   6.802  -3.944  1.00  0.00     0.157 A 
BRANCH  10  12
ATOM     12  O   UNL     1      -9.956   5.962  -6.166  1.00  0.00    -0.504 OA
ATOM     13  H   UNL     1      -9.728   6.908  -6.265  1.00  0.00     0.293 HD
ENDBRANCH  10  12
BRANCH  11  14
ATOM     14  O   UNL     1     -10.443   8.031  -4.486  1.00  0.00    -0.504 OA
ATOM     15  H   UNL     1      -9.789   8.193  -5.187  1.00  0.00     0.293 HD
ENDBRANCH  11  14
ENDBRANCH   1   6
TORSDOF 5
ENDMDL
MODEL 3
REMARK VINA RESULT:    -4.093     18.914     20.193
REMARK INTER + INTRA:          -5.018
REMARK INTER:                  -4.922
REMARK INTRA:                  -0.097
REMARK UNBOUND:                -0.088
REMARK SMILES NCCc1ccc(O)c(O)c1
REMARK SMILES IDX 3 1 2 2 1 3 4 6 5 7 11 8 6 9 9 10 7 11 10 12 8 14
REMARK H PARENT 1 4 1 5 10 13 8 15
ROOT
ATOM      1  C   UNL     1       0.476 -10.266  -1.675  1.00  0.00     0.050 C 
ENDROOT
BRANCH   1   2
ATOM      2  C   UNL     1       0.686  -8.955  -0.910  1.00  0.00     0.082 C 
BRANCH   2   3
ATOM      3  N   UNL     1       0.554  -7.800  -1.796  1.00  0.00    -0.330 NA
ATOM      4  H   UNL     1       1.466  -7.584  -2.200  1.00  0.00     0.118 HD
ATOM      5  H   UNL     1       0.287  -6.980  -1.250  1.00  0.00     0.118 HD
ENDBRANCH   2   3
ENDBRANCH   1   2
BRANCH   1   6
ATOM      6  C   UNL     1       1.520 -10.457  -2.748  1.00  0.00    -0.043 A 
ATOM      7  C   UNL     1       1.154 -10.456  -4.105  1.00  0.00     0.008 A 
ATOM      8  C   UNL     1       2.871 -10.609  -2.404  1.00  0.00     0.054 A 
ATOM      9  C   UNL     1       2.117 -10.613  -5.107  1.00  0.00     0.050 A 
ATOM     10  C   UNL     1       3.820 -10.764  -3.404  1.00  0.00     0.157 A 
ATOM     11  C   UNL     1       3.449 -10.768  -4.746  1.00  0.00     0.157 A 
BRANCH  10  12
ATOM     12  O   UNL     1       5.134 -10.911  -3.061  1.00  0.00    -0.504 OA
ATOM     13  H   UNL     1       5.185 -11.808  -2.676  1.00  0.00     0.293 HD
ENDBRANCH  10  12
BRANCH  11  14
ATOM     14  O   UNL     1       4.437 -10.925  -5.679  1.00  0.00    -0.504 OA
ATOM     15  H   UNL     1       5.040 -11.619  -5.364  1.00  0.00     0.293 HD
ENDBRANCH  11  14
ENDBRANCH   1   6
TORSDOF 5
ENDMDL
MODEL 4
REMARK VINA RESULT:    -4.055     20.500     20.798
REMARK INTER + INTRA:          -4.973
REMARK INTER:                  -4.882
REMARK INTRA:                  -0.091
REMARK UNBOUND:                -0.088
REMARK SMILES NCCc1ccc(O)c(O)c1
REMARK SMILES IDX 3 1 2 2 1 3 4 6 5 7 11 8 6 9 9 10 7 11 10 12 8 14
REMARK H PARENT 1 4 1 5 10 13 8 15
ROOT
ATOM      1  C   UNL     1       1.472 -11.222  -0.797  1.00  0.00     0.050 C 
ENDROOT
BRANCH   1   2
ATOM      2  C   UNL     1       2.545 -10.732  -1.774  1.00  0.00     0.082 C 
BRANCH   2   3
ATOM      3  N   UNL     1       3.344 -11.847  -2.282  1.00  0.00    -0.330 NA
ATOM      4  H   UNL     1       3.867 -11.535  -3.101  1.00  0.00     0.118 HD
ATOM      5  H   UNL     1       2.725 -12.588  -2.609  1.00  0.00     0.118 HD
ENDBRANCH   2   3
ENDBRANCH   1   2
BRANCH   1   6
ATOM      6  C   UNL     1       1.732 -10.733   0.608  1.00  0.00    -0.043 A 
ATOM      7  C   UNL     1       0.768 -10.916   1.615  1.00  0.00     0.008 A 
ATOM      8  C   UNL     1       2.951 -10.118   0.929  1.00  0.00     0.054 A 
ATOM      9  C   UNL     1       1.009 -10.484   2.922  1.00  0.00     0.050 A 
ATOM     10  C   UNL     1       3.181  -9.692   2.230  1.00  0.00     0.157 A 
ATOM     11  C   UNL     1       2.219  -9.871   3.221  1.00  0.00     0.157 A 
BRANCH  10  12
ATOM     12  O   UNL     1       4.370  -9.094   2.535  1.00  0.00    -0.504 OA
ATOM     13  H   UNL     1       4.872  -9.783   3.014  1.00  0.00     0.293 HD
ENDBRANCH  10  12
BRANCH  11  14
ATOM     14  O   UNL     1       2.514  -9.427   4.481  1.00  0.00    -0.504 OA
ATOM     15  H   UNL     1       2.649  -8.465   4.437  1.00  0.00     0.293 HD
ENDBRANCH  11  14
ENDBRANCH   1   6
TORSDOF 5
ENDMDL
MODEL 5
REMARK VINA RESULT:    -3.960      2.776      3.191
REMARK INTER + INTRA:          -4.858
REMARK INTER:                  -4.778
REMARK INTRA:                  -0.080
REMARK UNBOUND:                -0.088
REMARK SMILES NCCc1ccc(O)c(O)c1
REMARK SMILES IDX 3 1 2 2 1 3 4 6 5 7 11 8 6 9 9 10 7 11 10 12 8 14
REMARK H PARENT 1 4 1 5 10 13 8 15
ROOT
ATOM      1  C   UNL     1      -9.006   3.267  -3.176  1.00  0.00     0.050 C 
ENDROOT
BRANCH   1   2
ATOM      2  C   UNL     1     -10.037   3.197  -2.045  1.00  0.00     0.082 C 
BRANCH   2   3
ATOM      3  N   UNL     1      -9.890   1.964  -1.272  1.00  0.00    -0.330 NA
ATOM      4  H   UNL     1     -10.716   1.382  -1.414  1.00  0.00     0.118 HD
ATOM      5  H   UNL     1      -9.870   2.187  -0.277  1.00  0.00     0.118 HD
ENDBRANCH   2   3
ENDBRANCH   1   2
BRANCH   1   6
ATOM      6  C   UNL     1      -9.597   3.859  -4.433  1.00  0.00    -0.043 A 
ATOM      7  C   UNL     1     -10.946   3.631  -4.760  1.00  0.00     0.008 A 
ATOM      8  C   UNL     1      -8.816   4.665  -5.272  1.00  0.00     0.054 A 
ATOM      9  C   UNL     1     -11.507   4.191  -5.912  1.00  0.00     0.050 A 
ATOM     10  C   UNL     1      -9.382   5.216  -6.414  1.00  0.00     0.157 A 
ATOM     11  C   UNL     1     -10.716   4.982  -6.735  1.00  0.00     0.157 A 
BRANCH  10  12
ATOM     12  O   UNL     1      -8.614   6.001  -7.226  1.00  0.00    -0.504 OA
ATOM     13  H   UNL     1      -8.985   6.899  -7.118  1.00  0.00     0.293 HD
ENDBRANCH  10  12
BRANCH  11  14
ATOM     14  O   UNL     1     -11.207   5.557  -7.874  1.00  0.00    -0.504 OA
ATOM     15  H   UNL     1     -10.571   5.395  -8.591  1.00  0.00     0.293 HD
ENDBRANCH  11  14
ENDBRANCH   1   6
TORSDOF 5
ENDMDL
MODEL 6
REMARK VINA RESULT:    -3.943     18.203     19.624
REMARK INTER + INTRA:          -4.838
REMARK INTER:                  -4.744
REMARK INTRA:                  -0.093
REMARK UNBOUND:                -0.088
REMARK SMILES NCCc1ccc(O)c(O)c1
REMARK SMILES IDX 3 1 2 2 1 3 4 6 5 7 11 8 6 9 9 10 7 11 10 12 8 14
REMARK H PARENT 1 4 1 5 10 13 8 15
ROOT
ATOM      1  C   UNL     1       0.103  -8.112  -1.900  1.00  0.00     0.050 C 
ENDROOT
BRANCH   1   2
ATOM      2  C   UNL     1       0.252  -7.567  -0.476  1.00  0.00     0.082 C 
BRANCH   2   3
ATOM      3  N   UNL     1       0.620  -6.151  -0.490  1.00  0.00    -0.330 NA
ATOM      4  H   UNL     1      -0.230  -5.587  -0.505  1.00  0.00     0.118 HD
ATOM      5  H   UNL     1       1.116  -5.937  -1.355  1.00  0.00     0.118 HD
ENDBRANCH   2   3
ENDBRANCH   1   2
BRANCH   1   6
ATOM      6  C   UNL     1       1.054  -9.255  -2.161  1.00  0.00    -0.043 A 
ATOM      7  C   UNL     1       2.010  -9.619  -1.196  1.00  0.00     0.008 A 
ATOM      8  C   UNL     1       0.976  -9.984  -3.356  1.00  0.00     0.054 A 
ATOM      9  C   UNL     1       2.882 -10.688  -1.421  1.00  0.00     0.050 A 
ATOM     10  C   UNL     1       1.846 -11.043  -3.571  1.00  0.00     0.157 A 
ATOM     11  C   UNL     1       2.794 -11.395  -2.613  1.00  0.00     0.157 A 
BRANCH  10  12
ATOM     12  O   UNL     1       1.763 -11.748  -4.737  1.00  0.00    -0.504 OA
ATOM     13  H   UNL     1       1.576 -12.665  -4.454  1.00  0.00     0.293 HD
ENDBRANCH  10  12
BRANCH  11  14
ATOM     14  O   UNL     1       3.618 -12.450  -2.891  1.00  0.00    -0.504 OA
ATOM     15  H   UNL     1       4.101 -12.677  -2.078  1.00  0.00     0.293 HD
ENDBRANCH  11  14
ENDBRANCH   1   6
TORSDOF 5
ENDMDL
MODEL 7
REMARK VINA RESULT:    -3.899     17.817     19.032
REMARK INTER + INTRA:          -4.785
REMARK INTER:                  -4.703
REMARK INTRA:                  -0.082
REMARK UNBOUND:                -0.088
REMARK SMILES NCCc1ccc(O)c(O)c1
REMARK SMILES IDX 3 1 2 2 1 3 4 6 5 7 11 8 6 9 9 10 7 11 10 12 8 14
REMARK H PARENT 1 4 1 5 10 13 8 15
ROOT
ATOM      1  C   UNL     1       1.428 -10.995  -4.711  1.00  0.00     0.050 C 
ENDROOT
BRANCH   1   2
ATOM      2  C   UNL     1       2.802 -10.423  -5.071  1.00  0.00     0.082 C 
BRANCH   2   3
ATOM      3  N   UNL     1       2.814  -9.897  -6.436  1.00  0.00    -0.330 NA
ATOM      4  H   UNL     1       2.184 -10.454  -7.013  1.00  0.00     0.118 HD
ATOM      5  H   UNL     1       3.744 -10.016  -6.839  1.00  0.00     0.118 HD
ENDBRANCH   2   3
ENDBRANCH   1   2
BRANCH   1   6
ATOM      6  C   UNL     1       0.941 -10.477  -3.379  1.00  0.00    -0.043 A 
ATOM      7  C   UNL     1       0.472 -11.369  -2.398  1.00  0.00     0.008 A 
ATOM      8  C   UNL     1       0.978  -9.105  -3.095  1.00  0.00     0.054 A 
ATOM      9  C   UNL     1       0.037 -10.900  -1.155  1.00  0.00     0.050 A 
ATOM     10  C   UNL     1       0.545  -8.649  -1.858  1.00  0.00     0.157 A 
ATOM     11  C   UNL     1       0.076  -9.537  -0.894  1.00  0.00     0.157 A 
BRANCH  10  12
ATOM     12  O   UNL     1       0.585  -7.310  -1.589  1.00  0.00    -0.504 OA
ATOM     13  H   UNL     1      -0.121  -7.175  -0.927  1.00  0.00     0.293 HD
ENDBRANCH  10  12
BRANCH  11  14
ATOM     14  O   UNL     1      -0.334  -9.018   0.303  1.00  0.00    -0.504 OA
ATOM     15  H   UNL     1      -0.258  -8.050   0.253  1.00  0.00     0.293 HD
ENDBRANCH  11  14
ENDBRANCH   1   6
TORSDOF 5
ENDMDL
MODEL 8
REMARK VINA RESULT:    -3.721     18.277     19.688
REMARK INTER + INTRA:          -4.571
REMARK INTER:                  -4.487
REMARK INTRA:                  -0.084
REMARK UNBOUND:                -0.088
REMARK SMILES NCCc1ccc(O)c(O)c1
REMARK SMILES IDX 3 1 2 2 1 3 4 6 5 7 11 8 6 9 9 10 7 11 10 12 8 14
REMARK H PARENT 1 4 1 5 10 13 8 15
ROOT
ATOM      1  C   UNL     1       0.188  -9.550  -1.384  1.00  0.00     0.050 C 
ENDROOT
BRANCH   1   2
ATOM      2  C   UNL     1       0.721  -8.128  -1.582  1.00  0.00     0.082 C 
BRANCH   2   3
ATOM      3  N   UNL     1      -0.295  -7.132  -1.245  1.00  0.00    -0.330 NA
ATOM      4  H   UNL     1      -0.048  -6.244  -1.682  1.00  0.00     0.118 HD
ATOM      5  H   UNL     1      -0.286  -6.963  -0.239  1.00  0.00     0.118 HD
ENDBRANCH   2   3
ENDBRANCH   1   2
BRANCH   1   6
ATOM      6  C   UNL     1       0.604 -10.464  -2.512  1.00  0.00    -0.043 A 
ATOM      7  C   UNL     1       0.542 -11.860  -2.357  1.00  0.00     0.008 A 
ATOM      8  C   UNL     1       1.030  -9.929  -3.736  1.00  0.00     0.054 A 
ATOM      9  C   UNL     1       0.907 -12.713  -3.402  1.00  0.00     0.050 A 
ATOM     10  C   UNL     1       1.391 -10.783  -4.768  1.00  0.00     0.157 A 
ATOM     11  C   UNL     1       1.333 -12.165  -4.606  1.00  0.00     0.157 A 
BRANCH  10  12
ATOM     12  O   UNL     1       1.805 -10.255  -5.958  1.00  0.00    -0.504 OA
ATOM     13  H   UNL     1       1.270 -10.721  -6.630  1.00  0.00     0.293 HD
ENDBRANCH  10  12
BRANCH  11  14
ATOM     14  O   UNL     1       1.702 -12.946  -5.666  1.00  0.00    -0.504 OA
ATOM     15  H   UNL     1       1.335 -13.836  -5.526  1.00  0.00     0.293 HD
ENDBRANCH  11  14
ENDBRANCH   1   6
TORSDOF 5
ENDMDL
MODEL 9
REMARK VINA RESULT:    -3.688      2.654      3.761
REMARK INTER + INTRA:          -4.531
REMARK INTER:                  -4.435
REMARK INTRA:                  -0.095
REMARK UNBOUND:                -0.088
REMARK SMILES NCCc1ccc(O)c(O)c1
REMARK SMILES IDX 3 1 2 2 1 3 4 6 5 7 11 8 6 9 9 10 7 11 10 12 8 14
REMARK H PARENT 1 4 1 5 10 13 8 15
ROOT
ATOM      1  C   UNL     1     -10.566   4.622  -5.879  1.00  0.00     0.050 C 
ENDROOT
BRANCH   1   2
ATOM      2  C   UNL     1      -9.303   4.581  -6.745  1.00  0.00     0.082 C 
BRANCH   2   3
ATOM      3  N   UNL     1      -8.956   5.915  -7.236  1.00  0.00    -0.330 NA
ATOM      4  H   UNL     1      -7.945   5.971  -7.360  1.00  0.00     0.118 HD
ATOM      5  H   UNL     1      -9.191   6.610  -6.527  1.00  0.00     0.118 HD
ENDBRANCH   2   3
ENDBRANCH   1   2
BRANCH   1   6
ATOM      6  C   UNL     1     -10.237   4.865  -4.426  1.00  0.00    -0.043 A 
ATOM      7  C   UNL     1      -9.544   3.894  -3.682  1.00  0.00     0.008 A 
ATOM      8  C   UNL     1     -10.594   6.074  -3.811  1.00  0.00     0.054 A 
ATOM      9  C   UNL     1      -9.217   4.119  -2.341  1.00  0.00     0.050 A 
ATOM     10  C   UNL     1     -10.266   6.288  -2.479  1.00  0.00     0.157 A 
ATOM     11  C   UNL     1      -9.584   5.320  -1.746  1.00  0.00     0.157 A 
BRANCH  10  12
ATOM     12  O   UNL     1     -10.617   7.468  -1.887  1.00  0.00    -0.504 OA
ATOM     13  H   UNL     1      -9.973   7.575  -1.160  1.00  0.00     0.293 HD
ENDBRANCH  10  12
BRANCH  11  14
ATOM     14  O   UNL     1      -9.293   5.598  -0.440  1.00  0.00    -0.504 OA
ATOM     15  H   UNL     1     -10.127   5.804   0.017  1.00  0.00     0.293 HD
ENDBRANCH  11  14
ENDBRANCH   1   6
TORSDOF 5
ENDMDL
