MODEL 1
REMARK VINA RESULT:    -7.185      0.000      0.000
REMARK INTER + INTRA:         -11.971
REMARK INTER:                 -10.966
REMARK INTRA:                  -1.005
REMARK UNBOUND:                -1.005
REMARK SMILES C=CC1=C(C)c2cc3[nH]c(cc4nc(cc5[nH]c(cc1n2)c(C)c5CCC(=O)O)C(CCC(=O)O)=C4C)c(C)c3C=C
REMARK SMILES IDX 3 1 4 2 5 3 6 4 7 5 8 6 9 7 10 8 11 9 12 10 13 11 14 12
REMARK SMILES IDX 15 13 16 14 17 15 18 16 19 17 20 18 21 19 22 20 23 21 24 22
REMARK SMILES IDX 30 23 36 24 37 25 38 26 39 27 40 28 2 31 1 32 41 33 42 34
REMARK SMILES IDX 25 35 26 36 27 37 28 38 29 39 31 41 32 42 33 43 34 44 35 45
REMARK H PARENT 9 29 17 30 29 40 35 46
ROOT
ATOM      1  C   UNL     1      17.495   1.794  -5.799  1.00  0.00     0.005 C 
ATOM      2  C   UNL     1      18.308   2.862  -5.804  1.00  0.00    -0.016 C 
ATOM      3  C   UNL     1      18.911   3.556  -6.977  1.00  0.00     0.047 C 
ATOM      4  C   UNL     1      18.515   3.284  -4.419  1.00  0.00     0.069 A 
ATOM      5  C   UNL     1      19.290   4.344  -4.105  1.00  0.00     0.055 A 
ATOM      6  C   UNL     1      19.544   4.815  -2.627  1.00  0.00     0.048 A 
ATOM      7  N   UNL     1      18.810   4.410  -1.543  1.00  0.00    -0.355 N 
ATOM      8  C   UNL     1      19.262   5.051  -0.419  1.00  0.00     0.044 A 
ATOM      9  C   UNL     1      18.652   4.885   1.016  1.00  0.00     0.055 A 
ATOM     10  C   UNL     1      17.821   3.878   1.358  1.00  0.00     0.069 A 
ATOM     11  N   UNL     1      17.322   2.851   0.620  1.00  0.00    -0.248 NA
ATOM     12  C   UNL     1      16.515   2.076   1.395  1.00  0.00     0.069 A 
ATOM     13  C   UNL     1      15.799   0.975   1.083  1.00  0.00     0.055 A 
ATOM     14  C   UNL     1      15.759   0.345  -0.355  1.00  0.00     0.044 A 
ATOM     15  N   UNL     1      16.299   0.911  -1.478  1.00  0.00    -0.355 N 
ATOM     16  C   UNL     1      16.012   0.128  -2.564  1.00  0.00     0.044 A 
ATOM     17  C   UNL     1      16.397   0.464  -4.048  1.00  0.00     0.055 A 
ATOM     18  C   UNL     1      17.178   1.508  -4.394  1.00  0.00     0.073 A 
ATOM     19  N   UNL     1      17.806   2.439  -3.625  1.00  0.00    -0.248 NA
ATOM     20  C   UNL     1      15.323  -0.993  -2.133  1.00  0.00    -0.022 A 
ATOM     21  C   UNL     1      14.840  -2.108  -2.987  1.00  0.00     0.047 C 
ATOM     22  C   UNL     1      15.169  -0.858  -0.705  1.00  0.00    -0.019 A 
ATOM     23  C   UNL     1      16.517   2.649   2.739  1.00  0.00    -0.017 C 
ATOM     24  C   UNL     1      17.294   3.742   2.712  1.00  0.00    -0.020 C 
ATOM     25  C   UNL     1      17.628   4.666   3.831  1.00  0.00     0.047 C 
ATOM     26  C   UNL     1      20.351   5.839  -0.762  1.00  0.00    -0.018 A 
ATOM     27  C   UNL     1      21.188   6.640   0.167  1.00  0.00     0.047 C 
ATOM     28  C   UNL     1      20.513   5.698  -2.185  1.00  0.00     0.002 A 
ATOM     29  H   UNL     1      18.072   3.710  -1.563  1.00  0.00     0.167 HD
ATOM     30  H   UNL     1      16.826   1.782  -1.504  1.00  0.00     0.167 HD
ENDROOT
BRANCH   1  31
ATOM     31  C   UNL     1      17.057   1.115  -7.002  1.00  0.00     0.003 C 
ATOM     32  C   UNL     1      17.776   0.174  -7.629  1.00  0.00     0.009 C 
ENDBRANCH   1  31
BRANCH  28  33
ATOM     33  C   UNL     1      21.496   6.296  -3.035  1.00  0.00     0.003 C 
ATOM     34  C   UNL     1      21.799   7.599  -3.093  1.00  0.00     0.009 C 
ENDBRANCH  28  33
BRANCH  22  35
ATOM     35  C   UNL     1      14.479  -1.817   0.213  1.00  0.00     0.050 C 
BRANCH  35  36
ATOM     36  C   UNL     1      12.963  -1.711   0.101  1.00  0.00     0.127 C 
BRANCH  36  37
ATOM     37  C   UNL     1      12.388  -2.909  -0.593  1.00  0.00     0.303 C 
ATOM     38  O   UNL     1      12.644  -4.086  -0.404  1.00  0.00    -0.252 OA
BRANCH  37  39
ATOM     39  O   UNL     1      11.507  -2.566  -1.557  1.00  0.00    -0.481 OA
ATOM     40  H   UNL     1      10.673  -2.980  -1.256  1.00  0.00     0.296 HD
ENDBRANCH  37  39
ENDBRANCH  36  37
ENDBRANCH  35  36
ENDBRANCH  22  35
BRANCH  23  41
ATOM     41  C   UNL     1      15.772   2.091   3.912  1.00  0.00     0.050 C 
BRANCH  41  42
ATOM     42  C   UNL     1      16.660   1.171   4.745  1.00  0.00     0.127 C 
BRANCH  42  43
ATOM     43  C   UNL     1      16.458   1.404   6.213  1.00  0.00     0.303 C 
ATOM     44  O   UNL     1      16.404   0.579   7.112  1.00  0.00    -0.252 OA
BRANCH  43  45
ATOM     45  O   UNL     1      16.313   2.714   6.507  1.00  0.00    -0.481 OA
ATOM     46  H   UNL     1      16.380   2.730   7.482  1.00  0.00     0.296 HD
ENDBRANCH  43  45
ENDBRANCH  42  43
ENDBRANCH  41  42
ENDBRANCH  23  41
TORSDOF 10
ENDMDL
