MODEL 1
REMARK VINA RESULT:    -8.368      0.000      0.000
REMARK INTER + INTRA:         -14.292
REMARK INTER:                 -12.770
REMARK INTRA:                  -1.521
REMARK UNBOUND:                -1.521
REMARK SMILES C=CC1=C(C)c2cc3[nH]c(cc4nc(cc5[nH]c(cc1n2)c(C)c5CCC(=O)O)C(CCC(=O)O)=C4C)c(C)c3C=C
REMARK SMILES IDX 3 1 4 2 5 3 6 4 7 5 8 6 9 7 10 8 11 9 12 10 13 11 14 12
REMARK SMILES IDX 15 13 16 14 17 15 18 16 19 17 20 18 21 19 22 20 23 21 24 22
REMARK SMILES IDX 30 23 36 24 37 25 38 26 39 27 40 28 2 31 1 32 41 33 42 34
REMARK SMILES IDX 25 35 26 36 27 37 28 38 29 39 31 41 32 42 33 43 34 44 35 45
REMARK H PARENT 9 29 17 30 29 40 35 46
ROOT
ATOM      1  C   UNL     1      -6.846  12.232 -19.096  1.00  0.00     0.005 C 
ATOM      2  C   UNL     1      -5.637  12.817 -19.083  1.00  0.00    -0.016 C 
ATOM      3  C   UNL     1      -5.293  14.227 -19.422  1.00  0.00     0.047 C 
ATOM      4  C   UNL     1      -4.655  11.825 -18.648  1.00  0.00     0.069 A 
ATOM      5  C   UNL     1      -3.344  12.123 -18.533  1.00  0.00     0.055 A 
ATOM      6  C   UNL     1      -2.261  11.077 -18.082  1.00  0.00     0.048 A 
ATOM      7  N   UNL     1      -2.540   9.871 -17.493  1.00  0.00    -0.355 N 
ATOM      8  C   UNL     1      -1.368   9.233 -17.179  1.00  0.00     0.044 A 
ATOM      9  C   UNL     1      -1.266   7.845 -16.456  1.00  0.00     0.055 A 
ATOM     10  C   UNL     1      -2.306   6.993 -16.335  1.00  0.00     0.069 A 
ATOM     11  N   UNL     1      -3.597   7.105 -16.748  1.00  0.00    -0.248 NA
ATOM     12  C   UNL     1      -4.291   5.988 -16.400  1.00  0.00     0.069 A 
ATOM     13  C   UNL     1      -5.590   5.673 -16.584  1.00  0.00     0.055 A 
ATOM     14  C   UNL     1      -6.623   6.627 -17.284  1.00  0.00     0.044 A 
ATOM     15  N   UNL     1      -6.380   7.927 -17.638  1.00  0.00    -0.355 N 
ATOM     16  C   UNL     1      -7.522   8.478 -18.153  1.00  0.00     0.044 A 
ATOM     17  C   UNL     1      -7.678   9.970 -18.615  1.00  0.00     0.055 A 
ATOM     18  C   UNL     1      -6.647  10.839 -18.676  1.00  0.00     0.073 A 
ATOM     19  N   UNL     1      -5.324  10.665 -18.412  1.00  0.00    -0.248 NA
ATOM     20  C   UNL     1      -8.508   7.506 -18.186  1.00  0.00    -0.022 A 
ATOM     21  C   UNL     1      -9.895   7.680 -18.691  1.00  0.00     0.047 C 
ATOM     22  C   UNL     1      -7.924   6.308 -17.635  1.00  0.00    -0.019 A 
ATOM     23  C   UNL     1      -3.358   5.085 -15.728  1.00  0.00    -0.017 C 
ATOM     24  C   UNL     1      -2.167   5.697 -15.679  1.00  0.00    -0.020 C 
ATOM     25  C   UNL     1      -0.889   5.189 -15.108  1.00  0.00     0.047 C 
ATOM     26  C   UNL     1      -0.306  10.004 -17.628  1.00  0.00    -0.018 A 
ATOM     27  C   UNL     1       1.134   9.647 -17.562  1.00  0.00     0.047 C 
ATOM     28  C   UNL     1      -0.886  11.196 -18.188  1.00  0.00     0.002 A 
ATOM     29  H   UNL     1      -3.472   9.491 -17.349  1.00  0.00     0.167 HD
ATOM     30  H   UNL     1      -5.491   8.410 -17.529  1.00  0.00     0.167 HD
ENDROOT
BRANCH   1  31
ATOM     31  C   UNL     1      -8.066  12.922 -19.463  1.00  0.00     0.003 C 
ATOM     32  C   UNL     1      -8.877  13.520 -18.579  1.00  0.00     0.009 C 
ENDBRANCH   1  31
BRANCH  28  33
ATOM     33  C   UNL     1      -0.227  12.311 -18.794  1.00  0.00     0.003 C 
ATOM     34  C   UNL     1       0.326  12.332 -20.013  1.00  0.00     0.009 C 
ENDBRANCH  28  33
BRANCH  22  35
ATOM     35  C   UNL     1      -8.603   4.988 -17.451  1.00  0.00     0.050 C 
BRANCH  35  36
ATOM     36  C   UNL     1      -8.419   4.086 -18.667  1.00  0.00     0.127 C 
BRANCH  36  37
ATOM     37  C   UNL     1      -9.019   2.733 -18.430  1.00  0.00     0.303 C 
ATOM     38  O   UNL     1     -10.195   2.411 -18.472  1.00  0.00    -0.252 OA
BRANCH  37  39
ATOM     39  O   UNL     1      -8.088   1.811 -18.105  1.00  0.00    -0.481 OA
ATOM     40  H   UNL     1      -8.363   1.520 -17.213  1.00  0.00     0.296 HD
ENDBRANCH  37  39
ENDBRANCH  36  37
ENDBRANCH  35  36
ENDBRANCH  22  35
BRANCH  23  41
ATOM     41  C   UNL     1      -3.706   3.728 -15.200  1.00  0.00     0.050 C 
BRANCH  41  42
ATOM     42  C   UNL     1      -3.431   2.643 -16.238  1.00  0.00     0.127 C 
BRANCH  42  43
ATOM     43  C   UNL     1      -4.690   1.917 -16.613  1.00  0.00     0.303 C 
ATOM     44  O   UNL     1      -5.127   0.872 -16.157  1.00  0.00    -0.252 OA
BRANCH  43  45
ATOM     45  O   UNL     1      -5.371   2.549 -17.593  1.00  0.00    -0.481 OA
ATOM     46  H   UNL     1      -5.757   3.319 -17.132  1.00  0.00     0.296 HD
ENDBRANCH  43  45
ENDBRANCH  42  43
ENDBRANCH  41  42
ENDBRANCH  23  41
TORSDOF 10
ENDMDL
