MODEL 1
REMARK VINA RESULT:    -5.440      0.000      0.000
REMARK INTER + INTRA:          -7.363
REMARK INTER:                  -6.871
REMARK INTRA:                  -0.491
REMARK UNBOUND:                -0.491
REMARK SMILES CC(C)Cc1ccc(C(C)C(=O)O)cc1
REMARK SMILES IDX 5 1 6 2 7 3 8 4 14 5 15 6 4 7 2 8 1 9 3 10 9 11 10 12 11 13
REMARK SMILES IDX 12 14 13 15
REMARK H PARENT 13 16
ROOT
ATOM      1  C   UNL     1       2.364 -10.177   1.559  1.00  0.00    -0.048 A 
ATOM      2  C   UNL     1       3.076  -9.520   0.550  1.00  0.00     0.004 A 
ATOM      3  C   UNL     1       2.899  -9.871  -0.790  1.00  0.00     0.005 A 
ATOM      4  C   UNL     1       2.000 -10.885  -1.153  1.00  0.00    -0.034 A 
ATOM      5  C   UNL     1       1.292 -11.544  -0.138  1.00  0.00     0.005 A 
ATOM      6  C   UNL     1       1.470 -11.193   1.202  1.00  0.00     0.004 A 
ENDROOT
BRANCH   1   7
ATOM      7  C   UNL     1       2.562  -9.802   3.009  1.00  0.00     0.038 C 
BRANCH   7   8
ATOM      8  C   UNL     1       1.442 -10.305   3.941  1.00  0.00    -0.013 C 
ATOM      9  C   UNL     1       2.024 -10.639   5.317  1.00  0.00     0.008 C 
ATOM     10  C   UNL     1       0.318  -9.276   4.094  1.00  0.00     0.008 C 
ENDBRANCH   7   8
ENDBRANCH   1   7
BRANCH   4  11
ATOM     11  C   UNL     1       1.798 -11.287  -2.603  1.00  0.00     0.126 C 
ATOM     12  C   UNL     1       0.897 -10.311  -3.364  1.00  0.00     0.025 C 
BRANCH  11  13
ATOM     13  C   UNL     1       3.122 -11.523  -3.307  1.00  0.00     0.310 C 
ATOM     14  O   UNL     1       3.682 -10.736  -4.056  1.00  0.00    -0.252 OA
BRANCH  13  15
ATOM     15  O   UNL     1       3.664 -12.737  -3.089  1.00  0.00    -0.481 OA
ATOM     16  H   UNL     1       3.095 -13.340  -3.613  1.00  0.00     0.296 HD
ENDBRANCH  13  15
ENDBRANCH  11  13
ENDBRANCH   4  11
TORSDOF 5
ENDMDL
MODEL 2
REMARK VINA RESULT:    -5.319      1.544      2.268
REMARK INTER + INTRA:          -7.210
REMARK INTER:                  -6.717
REMARK INTRA:                  -0.493
REMARK UNBOUND:                -0.491
REMARK SMILES CC(C)Cc1ccc(C(C)C(=O)O)cc1
REMARK SMILES IDX 5 1 6 2 7 3 8 4 14 5 15 6 4 7 2 8 1 9 3 10 9 11 10 12 11 13
REMARK SMILES IDX 12 14 13 15
REMARK H PARENT 13 16
ROOT
ATOM      1  C   UNL     1       2.307 -10.115   2.028  1.00  0.00    -0.048 A 
ATOM      2  C   UNL     1       1.214 -10.911   1.664  1.00  0.00     0.004 A 
ATOM      3  C   UNL     1       0.916 -11.137   0.319  1.00  0.00     0.005 A 
ATOM      4  C   UNL     1       1.708 -10.578  -0.695  1.00  0.00    -0.034 A 
ATOM      5  C   UNL     1       2.798  -9.778  -0.326  1.00  0.00     0.005 A 
ATOM      6  C   UNL     1       3.095  -9.551   1.020  1.00  0.00     0.004 A 
ENDROOT
BRANCH   1   7
ATOM      7  C   UNL     1       2.623  -9.865   3.484  1.00  0.00     0.038 C 
BRANCH   7   8
ATOM      8  C   UNL     1       1.472 -10.227   4.443  1.00  0.00    -0.013 C 
ATOM      9  C   UNL     1       2.026 -10.973   5.659  1.00  0.00     0.008 C 
ATOM     10  C   UNL     1       0.699  -8.989   4.906  1.00  0.00     0.008 C 
ENDBRANCH   7   8
ENDBRANCH   1   7
BRANCH   4  11
ATOM     11  C   UNL     1       1.396 -10.805  -2.163  1.00  0.00     0.126 C 
ATOM     12  C   UNL     1       0.444 -11.984  -2.387  1.00  0.00     0.025 C 
BRANCH  11  13
ATOM     13  C   UNL     1       0.912  -9.533  -2.836  1.00  0.00     0.310 C 
ATOM     14  O   UNL     1       0.288  -8.633  -2.295  1.00  0.00    -0.252 OA
BRANCH  13  15
ATOM     15  O   UNL     1       1.181  -9.460  -4.154  1.00  0.00    -0.481 OA
ATOM     16  H   UNL     1       1.107 -10.390  -4.456  1.00  0.00     0.296 HD
ENDBRANCH  13  15
ENDBRANCH  11  13
ENDBRANCH   4  11
TORSDOF 5
ENDMDL
MODEL 3
REMARK VINA RESULT:    -5.194      2.397      3.261
REMARK INTER + INTRA:          -7.052
REMARK INTER:                  -6.538
REMARK INTRA:                  -0.514
REMARK UNBOUND:                -0.491
REMARK SMILES CC(C)Cc1ccc(C(C)C(=O)O)cc1
REMARK SMILES IDX 5 1 6 2 7 3 8 4 14 5 15 6 4 7 2 8 1 9 3 10 9 11 10 12 11 13
REMARK SMILES IDX 12 14 13 15
REMARK H PARENT 13 16
ROOT
ATOM      1  C   UNL     1       0.247 -10.684   1.865  1.00  0.00    -0.048 A 
ATOM      2  C   UNL     1      -1.008 -10.901   1.286  1.00  0.00     0.004 A 
ATOM      3  C   UNL     1      -1.121 -11.545   0.052  1.00  0.00     0.005 A 
ATOM      4  C   UNL     1       0.021 -11.991  -0.631  1.00  0.00    -0.034 A 
ATOM      5  C   UNL     1       1.277 -11.767  -0.050  1.00  0.00     0.005 A 
ATOM      6  C   UNL     1       1.389 -11.123   1.185  1.00  0.00     0.004 A 
ENDROOT
BRANCH   1   7
ATOM      7  C   UNL     1       0.368  -9.981   3.196  1.00  0.00     0.038 C 
BRANCH   7   8
ATOM      8  C   UNL     1       1.817  -9.861   3.709  1.00  0.00    -0.013 C 
ATOM      9  C   UNL     1       2.229  -8.388   3.756  1.00  0.00     0.008 C 
ATOM     10  C   UNL     1       1.990 -10.490   5.094  1.00  0.00     0.008 C 
ENDBRANCH   7   8
ENDBRANCH   1   7
BRANCH   4  11
ATOM     11  C   UNL     1      -0.079 -12.685  -1.977  1.00  0.00     0.126 C 
ATOM     12  C   UNL     1       1.092 -12.344  -2.903  1.00  0.00     0.025 C 
BRANCH  11  13
ATOM     13  C   UNL     1      -0.277 -14.183  -1.821  1.00  0.00     0.310 C 
ATOM     14  O   UNL     1      -1.353 -14.762  -1.803  1.00  0.00    -0.252 OA
BRANCH  13  15
ATOM     15  O   UNL     1       0.861 -14.883  -1.647  1.00  0.00    -0.481 OA
ATOM     16  H   UNL     1       1.103 -14.699  -0.715  1.00  0.00     0.296 HD
ENDBRANCH  13  15
ENDBRANCH  11  13
ENDBRANCH   4  11
TORSDOF 5
ENDMDL
MODEL 4
REMARK VINA RESULT:    -5.146      3.398      4.085
REMARK INTER + INTRA:          -6.991
REMARK INTER:                  -6.464
REMARK INTRA:                  -0.528
REMARK UNBOUND:                -0.491
REMARK SMILES CC(C)Cc1ccc(C(C)C(=O)O)cc1
REMARK SMILES IDX 5 1 6 2 7 3 8 4 14 5 15 6 4 7 2 8 1 9 3 10 9 11 10 12 11 13
REMARK SMILES IDX 12 14 13 15
REMARK H PARENT 13 16
ROOT
ATOM      1  C   UNL     1      -0.023  -9.394  -1.358  1.00  0.00    -0.048 A 
ATOM      2  C   UNL     1       0.584  -8.861  -2.501  1.00  0.00     0.004 A 
ATOM      3  C   UNL     1       1.085  -9.700  -3.498  1.00  0.00     0.005 A 
ATOM      4  C   UNL     1       0.985 -11.094  -3.379  1.00  0.00    -0.034 A 
ATOM      5  C   UNL     1       0.381 -11.625  -2.230  1.00  0.00     0.005 A 
ATOM      6  C   UNL     1      -0.120 -10.784  -1.232  1.00  0.00     0.004 A 
ENDROOT
BRANCH   1   7
ATOM      7  C   UNL     1      -0.557  -8.486  -0.277  1.00  0.00     0.038 C 
BRANCH   7   8
ATOM      8  C   UNL     1      -0.780  -7.031  -0.739  1.00  0.00    -0.013 C 
ATOM      9  C   UNL     1      -2.252  -6.821  -1.098  1.00  0.00     0.008 C 
ATOM     10  C   UNL     1      -0.361  -6.019   0.331  1.00  0.00     0.008 C 
ENDBRANCH   7   8
ENDBRANCH   1   7
BRANCH   4  11
ATOM     11  C   UNL     1       1.530 -12.024  -4.448  1.00  0.00     0.126 C 
ATOM     12  C   UNL     1       2.211 -11.270  -5.593  1.00  0.00     0.025 C 
BRANCH  11  13
ATOM     13  C   UNL     1       2.420 -13.100  -3.852  1.00  0.00     0.310 C 
ATOM     14  O   UNL     1       2.193 -14.301  -3.862  1.00  0.00    -0.252 OA
BRANCH  13  15
ATOM     15  O   UNL     1       3.522 -12.635  -3.231  1.00  0.00    -0.481 OA
ATOM     16  H   UNL     1       3.878 -11.973  -3.861  1.00  0.00     0.296 HD
ENDBRANCH  13  15
ENDBRANCH  11  13
ENDBRANCH   4  11
TORSDOF 5
ENDMDL
MODEL 5
REMARK VINA RESULT:    -5.002      4.854      7.876
REMARK INTER + INTRA:          -6.809
REMARK INTER:                  -6.260
REMARK INTRA:                  -0.549
REMARK UNBOUND:                -0.491
REMARK SMILES CC(C)Cc1ccc(C(C)C(=O)O)cc1
REMARK SMILES IDX 5 1 6 2 7 3 8 4 14 5 15 6 4 7 2 8 1 9 3 10 9 11 10 12 11 13
REMARK SMILES IDX 12 14 13 15
REMARK H PARENT 13 16
ROOT
ATOM      1  C   UNL     1       2.119  -9.596   3.880  1.00  0.00    -0.048 A 
ATOM      2  C   UNL     1       2.139 -10.640   4.813  1.00  0.00     0.004 A 
ATOM      3  C   UNL     1       1.362 -10.574   5.971  1.00  0.00     0.005 A 
ATOM      4  C   UNL     1       0.540  -9.465   6.221  1.00  0.00    -0.034 A 
ATOM      5  C   UNL     1       0.526  -8.419   5.287  1.00  0.00     0.005 A 
ATOM      6  C   UNL     1       1.305  -8.486   4.129  1.00  0.00     0.004 A 
ENDROOT
BRANCH   1   7
ATOM      7  C   UNL     1       2.966  -9.665   2.632  1.00  0.00     0.038 C 
BRANCH   7   8
ATOM      8  C   UNL     1       2.151  -9.823   1.333  1.00  0.00    -0.013 C 
ATOM      9  C   UNL     1       3.076  -9.694   0.122  1.00  0.00     0.008 C 
ATOM     10  C   UNL     1       1.413 -11.163   1.278  1.00  0.00     0.008 C 
ENDBRANCH   7   8
ENDBRANCH   1   7
BRANCH   4  11
ATOM     11  C   UNL     1      -0.307  -9.370   7.477  1.00  0.00     0.126 C 
ATOM     12  C   UNL     1      -0.553  -7.923   7.913  1.00  0.00     0.025 C 
BRANCH  11  13
ATOM     13  C   UNL     1      -1.596 -10.162   7.344  1.00  0.00     0.310 C 
ATOM     14  O   UNL     1      -2.574  -9.829   6.694  1.00  0.00    -0.252 OA
BRANCH  13  15
ATOM     15  O   UNL     1      -1.628 -11.303   8.061  1.00  0.00    -0.481 OA
ATOM     16  H   UNL     1      -2.326 -11.136   8.729  1.00  0.00     0.296 HD
ENDBRANCH  13  15
ENDBRANCH  11  13
ENDBRANCH   4  11
TORSDOF 5
ENDMDL
MODEL 6
REMARK VINA RESULT:    -4.988      3.404      6.256
REMARK INTER + INTRA:          -6.791
REMARK INTER:                  -6.215
REMARK INTRA:                  -0.577
REMARK UNBOUND:                -0.491
REMARK SMILES CC(C)Cc1ccc(C(C)C(=O)O)cc1
REMARK SMILES IDX 5 1 6 2 7 3 8 4 14 5 15 6 4 7 2 8 1 9 3 10 9 11 10 12 11 13
REMARK SMILES IDX 12 14 13 15
REMARK H PARENT 13 16
ROOT
ATOM      1  C   UNL     1       2.114 -10.785  -0.538  1.00  0.00    -0.048 A 
ATOM      2  C   UNL     1       2.849  -9.804   0.137  1.00  0.00     0.004 A 
ATOM      3  C   UNL     1       2.586  -9.514   1.478  1.00  0.00     0.005 A 
ATOM      4  C   UNL     1       1.584 -10.203   2.177  1.00  0.00    -0.034 A 
ATOM      5  C   UNL     1       0.846 -11.181   1.496  1.00  0.00     0.005 A 
ATOM      6  C   UNL     1       1.109 -11.470   0.154  1.00  0.00     0.004 A 
ENDROOT
BRANCH   1   7
ATOM      7  C   UNL     1       2.394 -11.092  -1.989  1.00  0.00     0.038 C 
BRANCH   7   8
ATOM      8  C   UNL     1       1.191 -10.848  -2.922  1.00  0.00    -0.013 C 
ATOM      9  C   UNL     1       0.967  -9.344  -3.096  1.00  0.00     0.008 C 
ATOM     10  C   UNL     1       1.384 -11.503  -4.292  1.00  0.00     0.008 C 
ENDBRANCH   7   8
ENDBRANCH   1   7
BRANCH   4  11
ATOM     11  C   UNL     1       1.277  -9.897   3.632  1.00  0.00     0.126 C 
ATOM     12  C   UNL     1       2.414 -10.306   4.572  1.00  0.00     0.025 C 
BRANCH  11  13
ATOM     13  C   UNL     1       0.858  -8.450   3.823  1.00  0.00     0.310 C 
ATOM     14  O   UNL     1       1.524  -7.581   4.365  1.00  0.00    -0.252 OA
BRANCH  13  15
ATOM     15  O   UNL     1      -0.381  -8.162   3.379  1.00  0.00    -0.481 OA
ATOM     16  H   UNL     1      -0.432  -7.186   3.458  1.00  0.00     0.296 HD
ENDBRANCH  13  15
ENDBRANCH  11  13
ENDBRANCH   4  11
TORSDOF 5
ENDMDL
MODEL 7
REMARK VINA RESULT:    -4.938      2.088      3.128
REMARK INTER + INTRA:          -6.729
REMARK INTER:                  -6.201
REMARK INTRA:                  -0.528
REMARK UNBOUND:                -0.491
REMARK SMILES CC(C)Cc1ccc(C(C)C(=O)O)cc1
REMARK SMILES IDX 5 1 6 2 7 3 8 4 14 5 15 6 4 7 2 8 1 9 3 10 9 11 10 12 11 13
REMARK SMILES IDX 12 14 13 15
REMARK H PARENT 13 16
ROOT
ATOM      1  C   UNL     1      -0.235 -10.457  -1.053  1.00  0.00    -0.048 A 
ATOM      2  C   UNL     1      -0.147 -11.826  -1.329  1.00  0.00     0.004 A 
ATOM      3  C   UNL     1       0.559 -12.283  -2.443  1.00  0.00     0.005 A 
ATOM      4  C   UNL     1       1.200 -11.381  -3.306  1.00  0.00    -0.034 A 
ATOM      5  C   UNL     1       1.104 -10.010  -3.029  1.00  0.00     0.005 A 
ATOM      6  C   UNL     1       0.397  -9.553  -1.913  1.00  0.00     0.004 A 
ENDROOT
BRANCH   1   7
ATOM      7  C   UNL     1      -1.006  -9.963   0.149  1.00  0.00     0.038 C 
BRANCH   7   8
ATOM      8  C   UNL     1      -0.873 -10.869   1.389  1.00  0.00    -0.013 C 
ATOM      9  C   UNL     1       0.439 -10.564   2.115  1.00  0.00     0.008 C 
ATOM     10  C   UNL     1      -2.048 -10.696   2.355  1.00  0.00     0.008 C 
ENDBRANCH   7   8
ENDBRANCH   1   7
BRANCH   4  11
ATOM     11  C   UNL     1       1.966 -11.856  -4.527  1.00  0.00     0.126 C 
ATOM     12  C   UNL     1       1.699 -10.991  -5.762  1.00  0.00     0.025 C 
BRANCH  11  13
ATOM     13  C   UNL     1       3.448 -12.007  -4.234  1.00  0.00     0.310 C 
ATOM     14  O   UNL     1       4.336 -11.279  -4.653  1.00  0.00    -0.252 OA
BRANCH  13  15
ATOM     15  O   UNL     1       3.763 -13.076  -3.477  1.00  0.00    -0.481 OA
ATOM     16  H   UNL     1       4.655 -12.859  -3.132  1.00  0.00     0.296 HD
ENDBRANCH  13  15
ENDBRANCH  11  13
ENDBRANCH   4  11
TORSDOF 5
ENDMDL
MODEL 8
REMARK VINA RESULT:    -4.711      1.783      2.567
REMARK INTER + INTRA:          -6.442
REMARK INTER:                  -6.009
REMARK INTRA:                  -0.433
REMARK UNBOUND:                -0.491
REMARK SMILES CC(C)Cc1ccc(C(C)C(=O)O)cc1
REMARK SMILES IDX 5 1 6 2 7 3 8 4 14 5 15 6 4 7 2 8 1 9 3 10 9 11 10 12 11 13
REMARK SMILES IDX 12 14 13 15
REMARK H PARENT 13 16
ROOT
ATOM      1  C   UNL     1       1.744 -10.246   2.874  1.00  0.00    -0.048 A 
ATOM      2  C   UNL     1       2.739  -9.384   2.396  1.00  0.00     0.004 A 
ATOM      3  C   UNL     1       2.977  -9.263   1.026  1.00  0.00     0.005 A 
ATOM      4  C   UNL     1       2.222  -9.997   0.099  1.00  0.00    -0.034 A 
ATOM      5  C   UNL     1       1.230 -10.863   0.582  1.00  0.00     0.005 A 
ATOM      6  C   UNL     1       0.993 -10.985   1.954  1.00  0.00     0.004 A 
ENDROOT
BRANCH   1   7
ATOM      7  C   UNL     1       1.493 -10.382   4.357  1.00  0.00     0.038 C 
BRANCH   7   8
ATOM      8  C   UNL     1       0.789  -9.162   4.984  1.00  0.00    -0.013 C 
ATOM      9  C   UNL     1      -0.353  -8.700   4.076  1.00  0.00     0.008 C 
ATOM     10  C   UNL     1       0.244  -9.470   6.381  1.00  0.00     0.008 C 
ENDBRANCH   7   8
ENDBRANCH   1   7
BRANCH   4  11
ATOM     11  C   UNL     1       2.470  -9.886  -1.394  1.00  0.00     0.126 C 
ATOM     12  C   UNL     1       2.932 -11.208  -2.014  1.00  0.00     0.025 C 
BRANCH  11  13
ATOM     13  C   UNL     1       1.273  -9.294  -2.118  1.00  0.00     0.310 C 
ATOM     14  O   UNL     1       0.611  -9.854  -2.978  1.00  0.00    -0.252 OA
BRANCH  13  15
ATOM     15  O   UNL     1       0.985  -8.023  -1.776  1.00  0.00    -0.481 OA
ATOM     16  H   UNL     1       1.677  -7.499  -2.232  1.00  0.00     0.296 HD
ENDBRANCH  13  15
ENDBRANCH  11  13
ENDBRANCH   4  11
TORSDOF 5
ENDMDL
MODEL 9
REMARK VINA RESULT:    -4.654      1.844      2.765
REMARK INTER + INTRA:          -6.370
REMARK INTER:                  -5.815
REMARK INTRA:                  -0.555
REMARK UNBOUND:                -0.491
REMARK SMILES CC(C)Cc1ccc(C(C)C(=O)O)cc1
REMARK SMILES IDX 5 1 6 2 7 3 8 4 14 5 15 6 4 7 2 8 1 9 3 10 9 11 10 12 11 13
REMARK SMILES IDX 12 14 13 15
REMARK H PARENT 13 16
ROOT
ATOM      1  C   UNL     1       1.575  -9.156   3.327  1.00  0.00    -0.048 A 
ATOM      2  C   UNL     1       2.758  -9.134   2.579  1.00  0.00     0.004 A 
ATOM      3  C   UNL     1       2.861  -9.859   1.390  1.00  0.00     0.005 A 
ATOM      4  C   UNL     1       1.782 -10.620   0.918  1.00  0.00    -0.034 A 
ATOM      5  C   UNL     1       0.601 -10.644   1.673  1.00  0.00     0.005 A 
ATOM      6  C   UNL     1       0.498  -9.918   2.863  1.00  0.00     0.004 A 
ENDROOT
BRANCH   1   7
ATOM      7  C   UNL     1       1.467  -8.377   4.616  1.00  0.00     0.038 C 
BRANCH   7   8
ATOM      8  C   UNL     1       0.512  -7.170   4.537  1.00  0.00    -0.013 C 
ATOM      9  C   UNL     1       0.234  -6.635   5.943  1.00  0.00     0.008 C 
ATOM     10  C   UNL     1       1.076  -6.048   3.660  1.00  0.00     0.008 C 
ENDBRANCH   7   8
ENDBRANCH   1   7
BRANCH   4  11
ATOM     11  C   UNL     1       1.876 -11.422  -0.367  1.00  0.00     0.126 C 
ATOM     12  C   UNL     1       0.539 -12.051  -0.768  1.00  0.00     0.025 C 
BRANCH  11  13
ATOM     13  C   UNL     1       2.494 -10.608  -1.490  1.00  0.00     0.310 C 
ATOM     14  O   UNL     1       3.602 -10.787  -1.975  1.00  0.00    -0.252 OA
BRANCH  13  15
ATOM     15  O   UNL     1       1.732  -9.585  -1.925  1.00  0.00    -0.481 OA
ATOM     16  H   UNL     1       1.902  -8.877  -1.269  1.00  0.00     0.296 HD
ENDBRANCH  13  15
ENDBRANCH  11  13
ENDBRANCH   4  11
TORSDOF 5
ENDMDL
