MODEL 1
REMARK VINA RESULT:    -4.066      0.000      0.000
REMARK INTER + INTRA:          -5.038
REMARK INTER:                  -4.898
REMARK INTRA:                  -0.140
REMARK UNBOUND:                -0.140
REMARK SMILES OC[C@H]1OC(O)[C@H](O)[C@@H](O)[C@@H]1O
REMARK SMILES IDX 3 1 4 2 5 3 7 4 9 5 11 6 2 7 1 8 12 10 6 12 10 14 8 16
REMARK H PARENT 1 9 12 11 6 13 10 15 8 17
ROOT
ATOM      1  C   UNL     1     -10.273   4.367  -2.343  1.00  0.00     0.178 C 
ATOM      2  O   UNL     1      -9.302   5.333  -1.920  1.00  0.00    -0.342 OA
ATOM      3  C   UNL     1      -9.555   6.639  -2.408  1.00  0.00     0.279 C 
ATOM      4  C   UNL     1      -9.588   6.678  -3.940  1.00  0.00     0.201 C 
ATOM      5  C   UNL     1     -10.601   5.673  -4.492  1.00  0.00     0.179 C 
ATOM      6  C   UNL     1     -10.399   4.281  -3.880  1.00  0.00     0.177 C 
ENDROOT
BRANCH   1   7
ATOM      7  C   UNL     1      -9.858   3.012  -1.745  1.00  0.00     0.191 C 
BRANCH   7   8
ATOM      8  O   UNL     1     -10.976   2.314  -1.206  1.00  0.00    -0.394 OA
ATOM      9  H   UNL     1     -11.759   2.611  -1.706  1.00  0.00     0.210 HD
ENDBRANCH   7   8
ENDBRANCH   1   7
BRANCH   6  10
ATOM     10  O   UNL     1     -11.507   3.445  -4.245  1.00  0.00    -0.387 OA
ATOM     11  H   UNL     1     -12.296   3.813  -3.795  1.00  0.00     0.211 HD
ENDBRANCH   6  10
BRANCH   3  12
ATOM     12  O   UNL     1     -10.783   7.136  -1.888  1.00  0.00    -0.366 OA
ATOM     13  H   UNL     1     -11.159   6.399  -1.377  1.00  0.00     0.213 HD
ENDBRANCH   3  12
BRANCH   5  14
ATOM     14  O   UNL     1     -10.442   5.619  -5.922  1.00  0.00    -0.387 OA
ATOM     15  H   UNL     1     -10.544   4.679  -6.164  1.00  0.00     0.211 HD
ENDBRANCH   5  14
BRANCH   4  16
ATOM     16  O   UNL     1      -9.934   7.993  -4.413  1.00  0.00    -0.385 OA
ATOM     17  H   UNL     1     -10.596   7.850  -5.120  1.00  0.00     0.211 HD
ENDBRANCH   4  16
TORSDOF 6
ENDMDL
