MODEL 1
REMARK VINA RESULT:    -7.142      0.000      0.000
REMARK INTER + INTRA:         -14.024
REMARK INTER:                 -11.944
REMARK INTRA:                  -2.080
REMARK UNBOUND:                -2.080
REMARK SMILES Nc1ncnc2c1ncn2C1OC(COP(=O)(O)OP(=O)(O)OP(=O)(O)O)C(O)C1O
REMARK SMILES IDX 16 1 17 2 15 3 14 4 13 5 11 6 12 7 30 8 28 9 10 10 4 11 3 12
REMARK SMILES IDX 5 13 2 14 6 15 7 16 8 17 9 18 1 19 31 22 29 24 18 26 19 28
REMARK SMILES IDX 20 29 21 30 22 31 23 33 24 34 25 35 26 36 27 38
REMARK H PARENT 1 20 1 21 31 23 29 25 18 27 22 32 26 37 27 39
ROOT
ATOM      1  P   UNL     1      -6.330 -12.192   4.575  1.00  0.00     0.481 P 
ATOM      2  O   UNL     1      -5.551 -13.355   4.047  1.00  0.00    -0.228 OA
ENDROOT
BRANCH   1   3
ATOM      3  O   UNL     1      -7.199 -11.387   3.500  1.00  0.00    -0.284 OA
BRANCH   3   4
ATOM      4  C   UNL     1      -7.649 -10.088   3.862  1.00  0.00     0.208 C 
BRANCH   4   5
ATOM      5  C   UNL     1      -9.173 -10.078   3.827  1.00  0.00     0.179 C 
ATOM      6  C   UNL     1     -10.731 -11.563   4.741  1.00  0.00     0.253 C 
ATOM      7  O   UNL     1      -9.711 -10.588   5.076  1.00  0.00    -0.347 OA
ATOM      8  C   UNL     1     -11.113 -11.295   3.279  1.00  0.00     0.195 C 
ATOM      9  C   UNL     1      -9.742 -10.960   2.716  1.00  0.00     0.179 C 
BRANCH   6  10
ATOM     10  N   UNL     1     -11.822 -11.494   5.683  1.00  0.00    -0.285 N 
ATOM     11  C   UNL     1     -14.009 -14.273   5.503  1.00  0.00     0.226 A 
ATOM     12  N   UNL     1     -14.909 -13.941   6.455  1.00  0.00    -0.217 NA
ATOM     13  N   UNL     1     -12.912 -13.588   5.112  1.00  0.00    -0.216 NA
ATOM     14  C   UNL     1     -14.725 -12.791   7.144  1.00  0.00     0.155 A 
ATOM     15  C   UNL     1     -12.792 -12.449   5.812  1.00  0.00     0.167 A 
ATOM     16  C   UNL     1     -13.625 -11.982   6.815  1.00  0.00     0.150 A 
ATOM     17  N   UNL     1     -13.182 -10.761   7.284  1.00  0.00    -0.231 NA
ATOM     18  C   UNL     1     -12.093 -10.505   6.590  1.00  0.00     0.204 A 
BRANCH  14  19
ATOM     19  N   UNL     1     -15.645 -12.465   8.132  1.00  0.00    -0.382 N 
ATOM     20  H   UNL     1     -16.498 -13.013   8.098  1.00  0.00     0.158 HD
ATOM     21  H   UNL     1     -15.208 -12.325   9.035  1.00  0.00     0.158 HD
ENDBRANCH  14  19
ENDBRANCH   6  10
BRANCH   8  22
ATOM     22  O   UNL     1     -11.957 -10.146   3.063  1.00  0.00    -0.386 OA
ATOM     23  H   UNL     1     -12.768 -10.222   3.602  1.00  0.00     0.211 HD
ENDBRANCH   8  22
BRANCH   9  24
ATOM     24  O   UNL     1      -9.815 -10.286   1.470  1.00  0.00    -0.387 OA
ATOM     25  H   UNL     1      -9.340 -10.850   0.822  1.00  0.00     0.211 HD
ENDBRANCH   9  24
ENDBRANCH   4   5
ENDBRANCH   3   4
ENDBRANCH   1   3
BRANCH   1  26
ATOM     26  O   UNL     1      -7.428 -12.562   5.680  1.00  0.00    -0.302 OA
ATOM     27  H   UNL     1      -8.180 -13.050   5.298  1.00  0.00     0.223 HD
ENDBRANCH   1  26
BRANCH   1  28
ATOM     28  O   UNL     1      -5.436 -11.102   5.308  1.00  0.00    -0.184 OA
BRANCH  28  29
ATOM     29  P   UNL     1      -4.200 -11.604   6.178  1.00  0.00     0.490 P 
ATOM     30  O   UNL     1      -2.876 -11.553   5.491  1.00  0.00    -0.227 OA
BRANCH  29  31
ATOM     31  O   UNL     1      -4.627 -13.096   6.613  1.00  0.00    -0.302 OA
ATOM     32  H   UNL     1      -5.567 -13.103   6.914  1.00  0.00     0.223 HD
ENDBRANCH  29  31
BRANCH  29  33
ATOM     33  O   UNL     1      -4.298 -10.786   7.532  1.00  0.00    -0.185 OA
BRANCH  33  34
ATOM     34  P   UNL     1      -3.517 -11.084   8.874  1.00  0.00     0.478 P 
ATOM     35  O   UNL     1      -3.968 -12.280   9.638  1.00  0.00    -0.228 OA
BRANCH  34  36
ATOM     36  O   UNL     1      -1.976 -11.202   8.475  1.00  0.00    -0.302 OA
ATOM     37  H   UNL     1      -1.906 -11.613   7.591  1.00  0.00     0.223 HD
ENDBRANCH  34  36
BRANCH  34  38
ATOM     38  O   UNL     1      -3.534  -9.718   9.698  1.00  0.00    -0.302 OA
ATOM     39  H   UNL     1      -3.821  -9.868  10.626  1.00  0.00     0.223 HD
ENDBRANCH  34  38
ENDBRANCH  33  34
ENDBRANCH  29  33
ENDBRANCH  28  29
ENDBRANCH   1  28
TORSDOF 15
ENDMDL
