REMARK SMILES Nc1ncnc2c1ncn2C1OC(COP(=O)(O)OP(=O)(O)OP(=O)(O)O)C(O)C1O
REMARK SMILES IDX 16 1 17 2 15 3 14 4 13 5 11 6 12 7 30 8 28 9 10 10 4 11 3 12
REMARK SMILES IDX 5 13 2 14 6 15 7 16 8 17 9 18 1 19 31 22 29 24 18 26 19 28
REMARK SMILES IDX 20 29 21 30 22 31 23 33 24 34 25 35 26 36 27 38
REMARK H PARENT 1 20 1 21 31 23 29 25 18 27 22 32 26 37 27 39
ROOT
ATOM      1  P   UNL     1       3.087   0.189   0.956  1.00  0.00     0.481 P 
ATOM      2  O   UNL     1       3.835   0.423   2.230  1.00  0.00    -0.228 OA
ENDROOT
BRANCH   1   3
ATOM      3  O   UNL     1       1.999  -0.983   0.990  1.00  0.00    -0.284 OA
BRANCH   3   4
ATOM      4  C   UNL     1       1.050  -0.965   2.049  1.00  0.00     0.208 C 
BRANCH   4   5
ATOM      5  C   UNL     1      -0.327  -1.266   1.469  1.00  0.00     0.179 C 
ATOM      6  C   UNL     1      -2.089   0.162   0.899  1.00  0.00     0.253 C 
ATOM      7  O   UNL     1      -0.731  -0.214   0.553  1.00  0.00    -0.347 OA
ATOM      8  C   UNL     1      -2.651  -0.994   1.738  1.00  0.00     0.195 C 
ATOM      9  C   UNL     1      -1.412  -1.349   2.543  1.00  0.00     0.179 C 
BRANCH   6  10
ATOM     10  N   UNL     1      -2.842   0.479  -0.291  1.00  0.00    -0.285 N 
ATOM     11  C   UNL     1      -6.029   1.861   0.394  1.00  0.00     0.226 A 
ATOM     12  N   UNL     1      -6.496   2.040  -0.862  1.00  0.00    -0.217 NA
ATOM     13  N   UNL     1      -4.835   1.363   0.781  1.00  0.00    -0.216 NA
ATOM     14  C   UNL     1      -5.696   1.706  -1.901  1.00  0.00     0.155 A 
ATOM     15  C   UNL     1      -4.094   1.029  -0.288  1.00  0.00     0.167 A 
ATOM     16  C   UNL     1      -4.432   1.159  -1.624  1.00  0.00     0.150 A 
ATOM     17  N   UNL     1      -3.414   0.689  -2.430  1.00  0.00    -0.231 NA
ATOM     18  C   UNL     1      -2.473   0.299  -1.596  1.00  0.00     0.204 A 
BRANCH  14  19
ATOM     19  N   UNL     1      -6.176   1.907  -3.188  1.00  0.00    -0.382 N 
ATOM     20  H   UNL     1      -5.687   1.374  -3.899  1.00  0.00     0.158 HD
ATOM     21  H   UNL     1      -7.188   1.925  -3.224  1.00  0.00     0.158 HD
ENDBRANCH  14  19
ENDBRANCH   6  10
BRANCH   8  22
ATOM     22  O   UNL     1      -3.028  -2.170   0.993  1.00  0.00    -0.386 OA
ATOM     23  H   UNL     1      -2.723  -2.091   0.069  1.00  0.00     0.211 HD
ENDBRANCH   8  22
BRANCH   9  24
ATOM     24  O   UNL     1      -1.496  -2.636   3.133  1.00  0.00    -0.387 OA
ATOM     25  H   UNL     1      -2.102  -3.161   2.566  1.00  0.00     0.211 HD
ENDBRANCH   9  24
ENDBRANCH   4   5
ENDBRANCH   3   4
ENDBRANCH   1   3
BRANCH   1  26
ATOM     26  O   UNL     1       2.218   1.434   0.447  1.00  0.00    -0.302 OA
ATOM     27  H   UNL     1       1.725   1.227  -0.368  1.00  0.00     0.223 HD
ENDBRANCH   1  26
BRANCH   1  28
ATOM     28  O   UNL     1       4.023  -0.128  -0.288  1.00  0.00    -0.184 OA
BRANCH  28  29
ATOM     29  P   UNL     1       5.268  -1.096  -0.066  1.00  0.00     0.490 P 
ATOM     30  O   UNL     1       4.941  -2.428   0.521  1.00  0.00    -0.227 OA
BRANCH  29  31
ATOM     31  O   UNL     1       6.260  -0.226   0.860  1.00  0.00    -0.302 OA
ATOM     32  H   UNL     1       5.899  -0.166   1.777  1.00  0.00     0.223 HD
ENDBRANCH  29  31
BRANCH  29  33
ATOM     33  O   UNL     1       6.010  -1.130  -1.466  1.00  0.00    -0.185 OA
BRANCH  33  34
ATOM     34  P   UNL     1       6.900   0.018  -2.091  1.00  0.00     0.478 P 
ATOM     35  O   UNL     1       7.337  -0.191  -3.500  1.00  0.00    -0.228 OA
BRANCH  34  36
ATOM     36  O   UNL     1       6.057   1.365  -1.943  1.00  0.00    -0.302 OA
ATOM     37  H   UNL     1       6.351   2.002  -2.623  1.00  0.00     0.223 HD
ENDBRANCH  34  36
BRANCH  34  38
ATOM     38  O   UNL     1       8.085   0.262  -1.052  1.00  0.00    -0.302 OA
ATOM     39  H   UNL     1       7.738   0.381  -0.140  1.00  0.00     0.223 HD
ENDBRANCH  34  38
ENDBRANCH  33  34
ENDBRANCH  29  33
ENDBRANCH  28  29
ENDBRANCH   1  28
TORSDOF 15
